 # File generated with Atomsk by baoergen22b on 2025-08-23 19:20:58
  
         338  atoms
           4  atom types
 
      0.000000000000      11.328000000000  xlo xhi
      0.000000000000      12.015000000000  ylo yhi
      0.000000000000      32.000000000000  zlo zhi
 
Masses
 
            1   55.84500000             # Fe
            2   15.99900000             # O
            3   1.00800000              # H
            4   35.45000000             # Cl
 
Atoms # atomic
 
         1    1        0.000000000000       0.000000000000       0.000000000000
         2    1        0.000000000000       2.002540050000       2.002880000000
         3    1       11.328000000000       0.000000000000       4.005120000000
         4    1        0.000000000000       2.002540050000       6.008000000000
         5    1        0.000000000000       0.000000000000       8.009920000000
         6    1        0.000000000000       2.002540050000      10.011840000000
         7    1        0.000000000000       0.000000000000      12.015040000000
         8    1        1.416000000000       2.002540050000       0.000000000000
         9    1        1.416000000000       0.000000000000       2.002880000000
        10    1        1.416000000000       2.002540050000       4.005120000000
        11    1        1.416000000000       0.000000000000       6.008000000000
        12    1        1.416000000000       2.002540050000       8.009920000000
        13    1        1.416000000000       0.000000000000      10.011840000000
        14    1        1.416000000000       2.002540050000      12.015040000000
        15    1        2.832000000000       0.000000000000       0.000000000000
        16    1        2.832000000000       2.002540050000       2.002880000000
        17    1        2.832000000000       0.000000000000       4.005120000000
        18    1        2.832000000000       2.002540050000       6.008000000000
        19    1        2.832000000000       0.000000000000       8.009920000000
        20    1        2.832000000000       2.002540050000      10.011840000000
        21    1        2.832000000000       0.000000000000      12.015040000000
        22    1        4.248000000000       2.002540050000       0.000000000000
        23    1        4.248000000000       0.000000000000       2.002880000000
        24    1        4.248000000000       2.002540050000       4.005120000000
        25    1        4.248000000000       0.000000000000       6.008000000000
        26    1        4.248000000000       2.002540050000       8.009920000000
        27    1        4.248000000000       0.000000000000      10.011840000000
        28    1        4.248000000000       2.002540050000      12.015040000000
        29    1        5.664000000000       0.000000000000       0.000000000000
        30    1        5.664000000000       2.002540050000       2.002880000000
        31    1        5.664000000000       0.000000000000       4.005120000000
        32    1        5.664000000000       2.002540050000       6.008000000000
        33    1        5.664000000000       0.000000000000       8.009920000000
        34    1        5.664000000000       2.002540050000      10.011840000000
        35    1        5.664000000000       0.000000000000      12.015040000000
        36    1        7.080000000000       2.002540050000       0.000000000000
        37    1        7.080000000000       0.000000000000       2.002880000000
        38    1        7.080000000000       2.002540050000       4.005120000000
        39    1        7.080000000000       0.000000000000       6.008000000000
        40    1        7.080000000000       2.002540050000       8.009920000000
        41    1        7.080000000000       0.000000000000      10.011840000000
        42    1        7.080000000000       2.002540050000      12.015040000000
        43    1        8.496000000000       0.000000000000       0.000000000000
        44    1        8.496000000000       2.002540050000       2.002880000000
        45    1        8.496000000000       0.000000000000       4.005120000000
        46    1        8.496000000000       2.002540050000       6.008000000000
        47    1        8.496000000000       0.000000000000       8.009920000000
        48    1        8.496000000000       2.002540050000      10.011840000000
        49    1        8.496000000000       0.000000000000      12.015040000000
        50    1        9.912000000000       2.002540050000       0.000000000000
        51    1        9.912000000000       0.000000000000       2.002880000000
        52    1        9.912000000000       2.002540050000       4.005120000000
        53    1        9.912000000000       0.000000000000       6.008000000000
        54    1        9.912000000000       2.002540050000       8.009920000000
        55    1        9.912000000000       0.000000000000      10.011840000000
        56    1        9.912000000000       2.002540050000      12.015040000000
        57    1        0.000000000000       4.004959950000       0.000000000000
        58    1        0.000000000000       6.007500000000       2.002880000000
        59    1        0.000000000000       4.004959950000       4.005120000000
        60    1        0.000000000000       6.007500000000       6.008000000000
        61    1        0.000000000000       4.004959950000       8.009920000000
        62    1       11.328000000000       6.007500000000      10.011840000000
        63    1        0.000000000000       4.004959950000      12.015040000000
        64    1        1.416000000000       6.007500000000       0.000000000000
        65    1        1.416000000000       4.004959950000       2.002880000000
        66    1        1.416000000000       6.007500000000       4.005120000000
        67    1        1.416000000000       4.004959950000       6.008000000000
        68    1        1.416000000000       6.007500000000       8.009920000000
        69    1        1.416000000000       4.004959950000      10.011840000000
        70    1        1.416000000000       6.007500000000      12.015040000000
        71    1        2.832000000000       4.004959950000       0.000000000000
        72    1        2.832000000000       6.007500000000       2.002880000000
        73    1        2.832000000000       4.004959950000       4.005120000000
        74    1        2.832000000000       6.007500000000       6.008000000000
        75    1        2.832000000000       4.004959950000       8.009920000000
        76    1        2.832000000000       6.007500000000      10.011840000000
        77    1        2.832000000000       4.004959950000      12.015040000000
        78    1        4.248000000000       6.007500000000       0.000000000000
        79    1        4.248000000000       4.004959950000       2.002880000000
        80    1        4.248000000000       6.007500000000       4.005120000000
        81    1        4.248000000000       4.004959950000       6.008000000000
        82    1        4.248000000000       6.007500000000       8.009920000000
        83    1        4.248000000000       4.004959950000      10.011840000000
        84    1        4.248000000000       6.007500000000      12.015040000000
        85    1        5.664000000000       4.004959950000       0.000000000000
        86    1        5.664000000000       6.007500000000       2.002880000000
        87    1        5.664000000000       4.004959950000       4.005120000000
        88    1        5.664000000000       6.007500000000       6.008000000000
        89    1        5.664000000000       4.004959950000       8.009920000000
        90    1        5.664000000000       6.007500000000      10.011840000000
        91    1        5.664000000000       4.004959950000      12.015040000000
        92    1        7.080000000000       6.007500000000       0.000000000000
        93    1        7.080000000000       4.004959950000       2.002880000000
        94    1        7.080000000000       6.007500000000       4.005120000000
        95    1        7.080000000000       4.004959950000       6.008000000000
        96    1        7.080000000000       6.007500000000       8.009920000000
        97    1        7.080000000000       4.004959950000      10.011840000000
        98    1        7.080000000000       6.007500000000      12.015040000000
        99    1        8.496000000000       4.004959950000       0.000000000000
       100    1        8.496000000000       6.007500000000       2.002880000000
       101    1        8.496000000000       4.004959950000       4.005120000000
       102    1        8.496000000000       6.007500000000       6.008000000000
       103    1        8.496000000000       4.004959950000       8.009920000000
       104    1        8.496000000000       6.007500000000      10.011840000000
       105    1        8.496000000000       4.004959950000      12.015040000000
       106    1        9.912000000000       6.007500000000       0.000000000000
       107    1        9.912000000000       4.004959950000       2.002880000000
       108    1        9.912000000000       6.007500000000       4.005120000000
       109    1        9.912000000000       4.004959950000       6.008000000000
       110    1        9.912000000000       6.007500000000       8.009920000000
       111    1        9.912000000000       4.004959950000      10.011840000000
       112    1        9.912000000000       6.007500000000      12.015040000000
       113    1       11.328000000000       8.010040050000       0.000000000000
       114    1        0.000000000000      10.012459950000       2.002880000000
       115    1       11.328000000000       8.010040050000       4.005120000000
       116    1        0.000000000000      10.012459950000       6.008000000000
       117    1       11.328000000000       8.010040050000       8.009920000000
       118    1        0.000000000000      10.012459950000      10.011840000000
       119    1        0.000000000000       8.010040050000      12.015040000000
       120    1        1.416000000000      10.012459950000       0.000000000000
       121    1        1.416000000000       8.010040050000       2.002880000000
       122    1        1.416000000000      10.012459950000       4.005120000000
       123    1        1.416000000000       8.010040050000       6.008000000000
       124    1        1.416000000000      10.012459950000       8.009920000000
       125    1        1.416000000000       8.010040050000      10.011840000000
       126    1        1.416000000000      10.012459950000      12.015040000000
       127    1        2.832000000000       8.010040050000       0.000000000000
       128    1        2.832000000000      10.012459950000       2.002880000000
       129    1        2.832000000000       8.010040050000       4.005120000000
       130    1        2.832000000000      10.012459950000       6.008000000000
       131    1        2.832000000000       8.010040050000       8.009920000000
       132    1        2.832000000000      10.012459950000      10.011840000000
       133    1        2.832000000000       8.010040050000      12.015040000000
       134    1        4.248000000000      10.012459950000       0.000000000000
       135    1        4.248000000000       8.010040050000       2.002880000000
       136    1        4.248000000000      10.012459950000       4.005120000000
       137    1        4.248000000000       8.010040050000       6.008000000000
       138    1        4.248000000000      10.012459950000       8.009920000000
       139    1        4.248000000000       8.010040050000      10.011840000000
       140    1        4.248000000000      10.012459950000      12.015040000000
       141    1        5.664000000000       8.010040050000       0.000000000000
       142    1        5.664000000000      10.012459950000       2.002880000000
       143    1        5.664000000000       8.010040050000       4.005120000000
       144    1        5.664000000000      10.012459950000       6.008000000000
       145    1        5.664000000000       8.010040050000       8.009920000000
       146    1        5.664000000000      10.012459950000      10.011840000000
       147    1        5.664000000000       8.010040050000      12.015040000000
       148    1        7.080000000000      10.012459950000       0.000000000000
       149    1        7.080000000000       8.010040050000       2.002880000000
       150    1        7.080000000000      10.012459950000       4.005120000000
       151    1        7.080000000000       8.010040050000       6.008000000000
       152    1        7.080000000000      10.012459950000       8.009920000000
       153    1        7.080000000000       8.010040050000      10.011840000000
       154    1        7.080000000000      10.012459950000      12.015040000000
       155    1        8.496000000000       8.010040050000       0.000000000000
       156    1        8.496000000000      10.012459950000       2.002880000000
       157    1        8.496000000000       8.010040050000       4.005120000000
       158    1        8.496000000000      10.012459950000       6.008000000000
       159    1        8.496000000000       8.010040050000       8.009920000000
       160    1        8.496000000000      10.012459950000      10.011840000000
       161    1        8.496000000000       8.010040050000      12.015040000000
       162    1        9.912000000000      10.012459950000       0.000000000000
       163    1        9.912000000000       8.010040050000       2.002880000000
       164    1        9.912000000000      10.012459950000       4.005120000000
       165    1        9.912000000000       8.010040050000       6.008000000000
       166    1        9.912000000000      10.012459950000       8.009920000000
       167    1        9.912000000000       8.010040050000      10.011840000000
       168    1        9.912000000000      10.012459950000      12.015040000000
       169    2       10.912488960000       8.712917550000      26.347200000000
       170    2       10.978757760000       4.899116250000      16.074560000000
       171    2        5.534067840000       0.234532800000      20.433920000000
       172    2       11.117639040000       7.946600850000      19.335040000000
       173    2       11.114693760000       8.822734650000      22.650880000000
       174    2        4.630546560000       5.960521350000      15.446720000000
       175    2        3.891960960000       0.649530900000      25.076480000000
       176    2        4.843966080000       7.207918650000      18.801920000000
       177    2        1.160440320000       6.204666150000      25.526400000000
       178    2        7.069011840000       2.617227450000      22.263680000000
       179    2        2.637611520000       1.490580900000      20.588800000000
       180    2        8.651873280000       9.454363200000      23.380160000000
       181    2        3.852199680000      10.223082900000      21.621120000000
       182    2        1.941279360000       0.638356950000      23.296640000000
       183    2        5.502802560000       9.613922400000      19.360640000000
       184    2        7.842374400000       4.957148700000      26.004480000000
       185    2        6.416405760000       9.669551850000      15.625920000000
       186    2        3.968311680000       5.628907350000      25.114880000000
       187    2        7.283790720000       7.461074700000      22.053120000000
       188    2        3.376083840000       8.241569100000      16.376000000000
       189    2        6.558912000000       9.359564850000      25.240000000000
       190    2        2.434047360000       4.681764900000      18.292160000000
       191    2        4.539809280000       7.927376850000      22.721280000000
       192    2        1.498694400000       4.803837300000      21.861120000000
       193    2        7.822437120000       8.455916700000      18.117760000000
       194    2        3.645237120000       9.605151450000      25.466880000000
       195    2        1.995087360000       7.926055200000      23.894720000000
       196    2       10.464126720000      10.006692750000      17.118400000000
       197    2        7.200076800000       5.935049550000      16.987200000000
       198    2        9.510195840000       3.168355500000      25.095680000000
       199    2        8.486257920000       4.919301450000      22.001920000000
       200    2        1.145713920000       6.903698850000      17.432320000000
       201    2        8.710099200000       7.544578950000      25.587840000000
       202    2        4.732498560000       3.608104500000      17.039040000000
       203    2        8.012747520000      10.430221500000      20.423040000000
       204    2        4.303280640000       5.289003000000      21.990400000000
       205    2        1.608009600000       3.405892050000      25.817920000000
       206    2        6.444159360000       1.261334700000      26.121600000000
       207    2        4.658186880000       2.526033600000      23.106240000000
       208    2        5.945614080000       0.309626550000      16.878080000000
       209    2        9.439169280000       5.383681200000      19.192320000000
       210    2        7.536065280000       1.701804600000      18.527680000000
       211    2        9.570120960000       3.256185150000      17.536960000000
       212    2        5.687335680000       3.729696300000      25.285440000000
       213    2        2.619939840000       7.482100950000      20.110400000000
       214    2       10.153852800000      11.938464450000      19.465920000000
       215    2        0.847560960000       0.115344000000      15.524800000000
       216    2        8.537007360000       0.612044100000      24.425280000000
       217    2        3.337568640000       1.017069750000      17.172480000000
       218    2        0.581579520000       2.532161250000      19.195520000000
       219    2        9.328947840000       1.418370750000      21.873280000000
       220    2        0.857982720000      10.211788800000      20.152000000000
       221    2        0.172185600000       2.985126750000      23.067200000000
       222    2       10.391854080000       6.381887400000      23.775040000000
       223    2        0.041120640000      11.718229500000      25.088640000000
       224    2        3.323975040000      10.342151550000      18.058560000000
       225    3        0.646715520000      11.177314200000      23.113600000000
       226    3        9.980307840000       8.321468850000      26.041600000000
       227    3        0.002265600000       5.800481550000      16.453120000000
       228    3        9.279104640000      11.894609700000      24.658880000000
       229    3        6.050511360000       0.866762100000      21.078720000000
       230    3        0.149869440000       0.308184750000      25.950720000000
       231    3       10.591566720000       7.226061300000      19.817920000000
       232    3       10.098572160000       9.156871800000      22.877120000000
       233    3        4.162473600000       6.900935400000      15.489920000000
       234    3        5.484564480000       6.172225650000      16.008000000000
       235    3        4.314382080000       1.209069450000      24.278720000000
       236    3        4.511376000000       0.712970100000      25.925760000000
       237    3        4.811341440000       6.817791600000      17.823360000000
       238    3        3.903515520000       7.129701000000      19.301440000000
       239    3        1.573232640000       5.211986850000      25.666880000000
       240    3        0.327152640000       6.015550050000      24.867520000000
       241    3        7.818472320000       1.958925600000      22.506560000000
       242    3        7.555662720000       3.514387500000      22.070400000000
       243    3        3.432610560000       0.973575450000      20.180480000000
       244    3        2.488308480000       1.123642800000      21.548480000000
       245    3        8.249389440000       9.480435750000      24.386240000000
       246    3        8.253807360000       8.664376950000      22.765120000000
       247    3        4.574133120000      10.721585250000      21.058240000000
       248    3        2.925682560000      10.422051300000      21.208320000000
       249    3        1.318692480000       0.278627850000      24.085440000000
       250    3        2.866890240000       0.733515750000      23.749760000000
       251    3        4.680616320000      10.141501050000      19.023680000000
       252    3        5.191622400000       8.637223050000      19.146240000000
       253    3        7.046922240000       4.383432450000      25.595840000000
       254    3        8.609846400000       4.251387600000      25.987840000000
       255    3        6.904869120000       9.186428700000      16.423680000000
       256    3        5.965098240000      10.499788350000      16.103360000000
       257    3        4.176407040000       5.953432500000      26.108480000000
       258    3        3.480188160000       6.435474300000      24.678720000000
       259    3        7.461073920000       6.489061200000      21.671680000000
       260    3        6.291911040000       7.586511300000      22.377600000000
       261    3        3.303358080000       8.912967300000      15.564160000000
       262    3        3.374724480000       8.987700600000      17.088640000000
       263    3        6.382421760000       9.811929600000      26.184960000000
       264    3        5.546188800000       9.262844100000      25.007680000000
       265    3        3.357052800000       4.267968300000      17.964160000000
       266    3        1.798546560000       3.967713450000      18.713600000000
       267    3        3.645690240000       7.999827300000      23.233920000000
       268    3        4.681522560000       8.934474150000      22.401600000000
       269    3        2.519913600000       5.004848250000      22.101760000000
       270    3        1.544232960000       4.920382800000      20.839040000000
       271    3        7.149893760000       8.664617250000      18.863360000000
       272    3        8.550714240000       9.196281000000      18.156800000000
       273    3        3.564808320000      10.594346400000      25.131520000000
       274    3        2.832566400000       9.060030900000      25.061120000000
       275    3        1.542873600000       7.183768500000      24.490880000000
       276    3        1.226142720000       8.542064250000      23.548160000000
       277    3       10.535832960000       9.038403900000      17.463040000000
       278    3       10.529036160000       9.942652800000      16.069760000000
       279    3        7.290587520000       6.924244500000      17.348480000000
       280    3        7.941154560000       5.830999650000      16.261120000000
       281    3       10.184551680000       3.267839700000      24.308800000000
       282    3        8.929635840000       2.311565850000      24.962880000000
       283    3        9.063079680000       5.309548650000      22.788800000000
       284    3        9.282616320000       4.743281700000      21.296000000000
       285    3        2.015477760000       7.307643150000      16.993280000000
       286    3        1.524182400000       6.004255950000      17.798400000000
       287    3        7.792984320000       8.042600700000      25.553600000000
       288    3        8.388950400000       6.596835750000      25.936960000000
       289    3        4.596449280000       4.170286350000      16.173440000000
       290    3        5.757909120000       3.448064700000      17.114880000000
       291    3        7.135167360000      10.016665200000      20.032320000000
       292    3        8.162956800000      10.001165850000      21.346560000000
       293    3        4.831392000000       5.698954800000      21.188160000000
       294    3        4.444654080000       5.950068300000      22.816320000000
       295    3        0.604688640000       3.162227850000      25.615360000000
       296    3        2.254272000000       2.562559200000      25.834880000000
       297    3        7.275181440000       0.763673400000      25.718080000000
       298    3        6.374492160000       2.312046450000      25.879040000000
       299    3        4.287194880000       3.473776800000      22.725760000000
       300    3        5.619934080000       2.422224000000      22.681920000000
       301    3        6.489811200000       0.720179100000      17.694720000000
       302    3        6.425921280000       0.839247750000      16.090880000000
       303    3        9.533531520000       4.601144250000      18.501440000000
       304    3        8.556264960000       5.725628100000      18.777920000000
       305    3        8.524999680000       2.007105750000      18.354560000000
       306    3        7.217521920000       2.420421750000      19.222720000000
       307    3        9.954366720000       3.882647250000      16.789120000000
       308    3       10.396158720000       3.059619750000      18.156160000000
       309    3        5.025100800000       4.563657450000      25.263680000000
       310    3        5.450353920000       3.152856150000      24.391680000000
       311    3        1.617411840000       7.290702000000      19.998720000000
       312    3        2.726649600000       8.024337900000      20.999040000000
       313    3        9.949155840000      11.493789300000      18.510720000000
       314    3        9.244440960000      11.564437500000      19.962560000000
       315    3        1.726047360000       0.698912550000      15.689920000000
       316    3        8.808766080000       0.765595800000      23.409600000000
       317    3        3.457079040000       2.039786550000      17.264000000000
       318    3        4.188867840000       0.750336750000      16.606080000000
       319    3        0.097307520000       1.665639450000      19.496960000000
       320    3        1.469015040000       2.358184050000      19.752960000000
       321    3       10.221934080000       1.825679250000      22.244160000000
       322    3        9.512348160000       0.987272550000      20.951040000000
       323    3        0.253180800000       7.955732250000      26.022400000000
       324    3        0.444737280000       4.421399850000      15.571520000000
       325    3        0.761241600000      11.664402300000      16.455040000000
       326    3        0.296793600000       7.433800650000      18.562880000000
       327    3        0.194954880000       9.513236700000      21.987520000000
       328    3        0.150888960000      10.918751400000      19.800000000000
       329    3        0.463088640000       9.244821600000      19.876480000000
       330    3        1.047840000000       2.384016300000      23.142720000000
       331    3        0.593473920000       3.888414450000      22.665600000000
       332    3        9.638202240000       6.671569050000      24.453120000000
       333    3       10.661800320000       7.273039950000      23.237120000000
       334    3        6.266536320000      11.806419600000      19.786560000000
       335    3        2.596264320000       9.919103400000      18.641280000000
       336    3        3.175691520000      11.404998450000      18.052800000000
       337    3       11.231598720000      10.800523800000      25.567360000000
       338    4        7.373735040000      11.483696700000      22.816320000000
