LAMMPS (2 Aug 2023)
OMP_NUM_THREADS environment is not set. Defaulting to 1 thread. (src/comm.cpp:98)
  using 1 OpenMP thread(s) per MPI task
Loaded 1 plugins from /work/home/baoergen22b/apprepo/deepmd/v2.2.9-dtk23.10/app/lib/deepmd_lmp
Reading data file ...
  orthogonal box = (0 0 0) to (11.328 12.015 32)
  1 by 1 by 4 MPI processor grid
  reading atoms ...
  338 atoms
  read_data CPU = 0.027 seconds
Summary of lammps deepmd module ...
  >>> Info of deepmd-kit:
  installed to:       /work/home/wys974137909/shangcheng/deepmd-kit/20240715/deepmd-kit_v2.2.9/install
  source:             v2.2.9
  source branch:      HEAD
  source commit:      be43748
  source commit at:   2024-02-04 13:44:12 +0800
  support model ver.: 1.1 
  build variant:      rocm
  build with tf inc:  /work/home/wys974137909/shangcheng/miniconda3/envs/deepmd-kit-v2.2.9/lib/python3.8/site-packages/tensorflow/include;/work/home/wys974137909/shangcheng/miniconda3/envs/deepmd-kit-v2.2.9/lib/python3.8/site-packages/tensorflow/include
  build with tf lib:  /work/home/wys974137909/shangcheng/miniconda3/envs/deepmd-kit-v2.2.9/lib/python3.8/site-packages/tensorflow/lib/libtensorflow_cc.so
  set tf intra_op_parallelism_threads: 0
  set tf inter_op_parallelism_threads: 0
  >>> Info of lammps module:
  use deepmd-kit at:  /work/home/wys974137909/shangcheng/deepmd-kit/20240715/deepmd-kit_v2.2.9/install
  source:             v2.2.9
  source branch:      HEAD
  source commit:      be43748
  source commit at:   2024-02-04 13:44:12 +0800
  build float prec:   double
  build with tf inc:  /work/home/wys974137909/shangcheng/miniconda3/envs/deepmd-kit-v2.2.9/lib/python3.8/site-packages/tensorflow/include;/work/home/wys974137909/shangcheng/miniconda3/envs/deepmd-kit-v2.2.9/lib/python3.8/site-packages/tensorflow/include
  build with tf lib:  /work/home/wys974137909/shangcheng/miniconda3/envs/deepmd-kit-v2.2.9/lib/python3.8/site-packages/tensorflow/lib/libtensorflow_cc.so
INVALID_ARGUMENT: Tensor spin_attr/ntypes_spin:0, specified in either feed_devices or fetch_devices was not found in the Graph
  >>> Info of model(s):
  using   1 model(s): graph-compress.pb 
  rcut in model:      6
  ntypes in model:    4
INVALID_ARGUMENT: Tensor spin_attr/ntypes_spin:0, specified in either feed_devices or fetch_devices was not found in the Graph
INVALID_ARGUMENT: Tensor spin_attr/ntypes_spin:0, specified in either feed_devices or fetch_devices was not found in the Graph
INVALID_ARGUMENT: Tensor spin_attr/ntypes_spin:0, specified in either feed_devices or fetch_devices was not found in the Graph
167 atoms in group fixed
171 atoms in group mobile

CITE-CITE-CITE-CITE-CITE-CITE-CITE-CITE-CITE-CITE-CITE-CITE-CITE

Your simulation uses code contributions which should be cited:
- GPU package (short-range, long-range and three-body potentials): doi:10.1016/j.cpc.2010.12.021, doi:10.1016/j.cpc.2011.10.012, doi:10.1016/j.cpc.2013.08.002, doi:10.1016/j.commatsci.2014.10.068, doi:10.1016/j.cpc.2016.10.020, doi:10.3233/APC200086
- USER-DEEPMD package:
The log file lists these citations in BibTeX format.

CITE-CITE-CITE-CITE-CITE-CITE-CITE-CITE-CITE-CITE-CITE-CITE-CITE

Generated 0 of 6 mixed pair_coeff terms from geometric mixing rule
Neighbor list info ...
  update: every = 1 steps, delay = 0 steps, check = yes
  max neighbors/atom: 2000, page size: 100000
  master list distance cutoff = 8
  ghost atom cutoff = 8
  binsize = 4, bins = 3 4 8
  1 neighbor lists, perpetual/occasional/extra = 1 0 0
  (1) pair deepmd, perpetual
      attributes: full, newton on
      pair build: full/bin/atomonly
      stencil: full/bin/3d
      bin: standard
Setting up Verlet run ...
  Unit style    : metal
  Current step  : 0
  Time step     : 0.0005
colvars: Creating proxy instance
colvars: ----------------------------------------------------------------------
colvars: Initializing the collective variables module, version 2023-05-01.
colvars: Please cite Fiorin et al, Mol Phys 2013:
colvars:   https://doi.org/10.1080/00268976.2013.813594
colvars: as well as all other papers listed below for individual features used.
colvars: This version was built with the C++11 standard or higher.
colvars: Using LAMMPS interface, version "2023-04-12".
colvars: ----------------------------------------------------------------------
colvars: Reading new configuration from file "pmf.in":
colvars: # units = "" [default]
colvars: # smp = on [default]
colvars: # colvarsTrajFrequency = 100 [default]
colvars: # colvarsRestartFrequency = 0 [default]
colvars: # scriptedColvarForces = off [default]
colvars: # scriptingAfterBiases = off [default]
colvars: ----------------------------------------------------------------------
colvars:   Initializing a new collective variable.
colvars:   # name = "d"
colvars:   Initializing a new "distanceZ" component.
colvars:     # name = "" [default]
colvars:     # componentCoeff = 1 [default]
colvars:     # componentExp = 1 [default]
colvars:     # period = 0 [default]
colvars:     # wrapAround = 0 [default]
colvars:     # forceNoPBC = off [default]
colvars:     # scalable = on [default]
colvars:       Initializing atom group "main".
colvars:       # name = "" [default]
colvars:       # centerToOrigin = off [default]
colvars:       # centerToReference = off [default]
colvars:       # rotateToReference = off [default]
colvars:       # atomsOfGroup = "" [default]
colvars:       # indexGroup = "" [default]
colvars:       # psfSegID =  [default]
colvars:       # atomsFile = "" [default]
colvars:       # dummyAtom = ( 0 , 0 , 0 ) [default]
colvars:       # enableFitGradients = on [default]
colvars:       # printAtomIDs = off [default]
colvars:       Atom group "main" defined with 1 atoms requested.
colvars:       Initializing atom group "ref".
colvars:       # name = "" [default]
colvars:       # centerToOrigin = off [default]
colvars:       # centerToReference = off [default]
colvars:       # rotateToReference = off [default]
colvars:       # atomsOfGroup = "" [default]
colvars:       # indexGroup = "" [default]
colvars:       # psfSegID =  [default]
colvars:       # atomsFile = "" [default]
colvars:       # dummyAtom = ( 0 , 0 , 0 ) [default]
colvars:       # enableFitGradients = on [default]
colvars:       # printAtomIDs = off [default]
colvars:       Atom group "ref" defined with 22 atoms requested.
colvars:     # axis = ( 0 , 0 , 1 ) [default]
colvars:     # oneSiteSystemForce = off [default]
colvars:     # oneSiteTotalForce = off [default]
colvars:   All components initialized.
colvars:   # timeStepFactor = 1 [default]
colvars:   # width = 0.05
colvars:   # lowerBoundary = -0.2
colvars:   # upperBoundary = 6
colvars:   # hardLowerBoundary = on
colvars:   # hardUpperBoundary = off [default]
colvars:   # expandBoundaries = off [default]
colvars:   # extendedLagrangian = off [default]
colvars:   # outputValue = on [default]
colvars:   # outputVelocity = off [default]
colvars:   # outputTotalForce = on
colvars:   # outputAppliedForce = on
colvars:   # subtractAppliedForce = off [default]
colvars:   # runAve = off [default]
colvars:   # corrFunc = off [default]
colvars: ----------------------------------------------------------------------
colvars: Collective variables initialized, 1 in total.
colvars: ----------------------------------------------------------------------
colvars:   Initializing a new "metadynamics" instance.
colvars:   # name = "metadynamics1" [default]
colvars:   # colvars = { d }
colvars:   # stepZeroData = off [default]
colvars:   # outputEnergy = off [default]
colvars:   # outputFreq = 0 [default]
colvars:   # timeStepFactor = 1 [default]
colvars:   # writeTISamples = on
colvars:   # writeTIPMF = on
colvars:   # hillWeight = 0.1
colvars:   # newHillFrequency = 300
colvars:   # gaussianSigmas =  [default]
colvars:   # hillWidth = 1
colvars:   Half-widths of the Gaussian hills (sigma's):
colvars:   d: 0.025
colvars:   # multipleReplicas = off [default]
colvars:   # useGrids = on [default]
colvars:   # gridsUpdateFrequency = 300 [default]
colvars:   # rebinGrids = off [default]
colvars:   # writeFreeEnergyFile = on [default]
colvars:   # keepHills = off [default]
colvars:   # keepFreeEnergyFiles = off [default]
colvars:   # writeHillsTrajectory = off [default]
colvars:   # wellTempered = off [default]
colvars:   # biasTemperature = 800
colvars:   # ebMeta = off [default]
colvars: ----------------------------------------------------------------------
colvars: Collective variables biases initialized, 1 in total.
colvars: ----------------------------------------------------------------------
colvars: Collective variables module (re)initialized.
colvars: ----------------------------------------------------------------------
colvars: Re-initialized atom group for variable "d":0/0. 1 atoms: total mass = 55.845, total charge = 4.65064e-310.
colvars: Re-initialized atom group for variable "d":0/1. 22 atoms: total mass = 1228.59, total charge = 3.60241e+252.
colvars: The restart output state file will be "rest.colvars.state".
colvars: The final output state file will be "out.colvars.state".
Per MPI rank memory allocation (min/avg/max) = 3.132 | 3.155 | 3.171 Mbytes
   Step          Temp         c_mTemp         PotEng         KinEng         TotEng         Press     
         0   150.40208      298.15        -2338.2108      6.5516151     -2331.6592     -12178.041    
        50   163.99746      325.10084     -2338.805       7.1438389     -2331.6612     -11862.191    
       100   155.95433      309.15652     -2338.4536      6.7934748     -2331.6601     -10815.969    
       150   148.13808      293.66197     -2338.1166      6.452994      -2331.6637     -8199.0896    
       200   152.82226      302.94765     -2338.327       6.6570398     -2331.67       -10065.284    
       250   166.4435       329.94976     -2338.927       7.2503901     -2331.6766     -12810.32     
       300   169.60033      336.2077      -2339.0652      7.3879036     -2331.6773     -10265.85     
       350   156.74752      310.7289      -2338.5155      6.8280266     -2331.6874     -11825.307    
       400   165.90223      328.87677     -2338.8549      7.226812      -2331.6281     -12401.817    
       450   157.43286      312.0875      -2338.4953      6.8578809     -2331.6374     -12601.966    
       500   168.48503      333.99679     -2338.9806      7.3393205     -2331.6413     -11743.409    
       550   153.02444      303.34846     -2338.3045      6.6658471     -2331.6386     -10500.657    
       600   158.60419      314.40949     -2338.5676      6.9089048     -2331.6587     -11950.401    
       650   155.95764      309.16309     -2338.3494      6.7936191     -2331.5558     -12959.509    
       700   159.30731      315.80332     -2338.489       6.9395332     -2331.5495     -12198.988    
       750   151.80395      300.929       -2338.1739      6.6126814     -2331.5612     -8326.2732    
       800   151.88153      301.08279     -2338.1766      6.6160608     -2331.5605     -11346.124    
       850   160.12744      317.42909     -2338.5977      6.9752582     -2331.6225     -11257.518    
       900   145.06009      287.56029     -2337.9811      6.3189144     -2331.6621     -9567.3406    
       950   161.16596      319.48782     -2338.5255      7.020497      -2331.505      -12251.316    
      1000   148.47128      294.32248     -2337.981       6.4675083     -2331.5135     -13455.333    
      1050   154.34529      305.96683     -2338.252       6.7233839     -2331.5286     -10292.289    
      1100   166.78118      330.61916     -2338.8048      7.2650996     -2331.5397     -9496.5082    
      1150   169.46582      335.94107     -2338.9969      7.3820446     -2331.6149     -10948.066    
      1200   160.27244      317.71654     -2338.5383      6.9815747     -2331.5567     -11696.515    
      1250   159.74894      316.67878     -2338.4624      6.9587706     -2331.5036     -9443.7664    
      1300   146.90057      291.20878     -2337.9051      6.3990871     -2331.506      -10939.927    
      1350   155.24493      307.75025     -2338.3341      6.762573      -2331.5715     -11746.233    
      1400   153.66511      304.61849     -2338.247       6.6937552     -2331.5533     -11338.319    
      1450   166.5003       330.06236     -2338.8117      7.2528644     -2331.5588     -12342.722    
      1500   156.53362      310.30488     -2338.4096      6.8187091     -2331.5909     -11225.52     
      1550   156.58397      310.40469     -2338.3696      6.8209023     -2331.5487     -12308.673    
      1600   182.88044      362.53359     -2339.6328      7.9663945     -2331.6664     -12193.269    
      1650   165.87573      328.82424     -2338.7731      7.2256576     -2331.5475     -13096.522    
      1700   153.40367      304.10021     -2338.2364      6.6823663     -2331.554      -9938.2169    
      1750   156.88374      310.99895     -2338.4216      6.8339608     -2331.5876     -13380.752    
      1800   142.66737      282.81709     -2337.9258      6.2146862     -2331.7111     -11949.916    
      1850   160.26838      317.7085      -2338.5716      6.9813979     -2331.5902     -9426.9067    
      1900   139.59187      276.72036     -2337.6072      6.0807153     -2331.5264     -12736.677    
      1950   148.36665      294.11506     -2338.0192      6.4629503     -2331.5562     -12710.697    
      2000   153.93824      305.15993     -2338.3755      6.7056527     -2331.6698     -10934.657    
      2050   150.39656      298.13907     -2338.3458      6.5513749     -2331.7944     -10646.822    
      2100   165.97263      329.01633     -2338.8929      7.2298788     -2331.663      -11907.486    
      2150   149.07042      295.51019     -2338.1049      6.4936072     -2331.6113     -12401.905    
      2200   165.07529      327.23749     -2338.8254      7.1907902     -2331.6346     -12785.822    
      2250   150.96384      299.26362     -2338.2533      6.576086      -2331.6772     -13149.298    
      2300   161.33718      319.82723     -2338.8211      7.0279554     -2331.7932     -11978.612    
      2350   156.95115      311.13257     -2338.5794      6.836897      -2331.7425     -11383.182    
      2400   158.77963      314.75726     -2338.6119      6.9165467     -2331.6954     -12712.096    
      2450   158.37125      313.94772     -2338.6246      6.8987577     -2331.7258     -11538.575    
      2500   163.33202      323.78171     -2338.9003      7.1148521     -2331.7855     -10946.323    
      2550   153.28478      303.86453     -2338.6603      6.6771874     -2331.9831     -10367.007    
      2600   155.33028      307.91944     -2338.7686      6.766291      -2332.0023     -10780.971    
      2650   159.74665      316.67424     -2338.8989      6.958671      -2331.9403     -11176.005    
      2700   155.7292       308.71023     -2338.6713      6.7836679     -2331.8876     -8484.2914    
      2750   164.38146      325.86207     -2339.0768      7.1605664     -2331.9162     -11088.431    
      2800   151.04453      299.42357     -2338.5719      6.5796009     -2331.9923     -12078.128    
      2850   148.30677      293.99636     -2338.5228      6.460342      -2332.0624     -9108.4652    
      2900   157.93482      313.08256     -2338.8452      6.8797466     -2331.9655     -8898.9711    
      2950   167.55305      332.14929     -2339.3572      7.2987231     -2332.0585     -13302.943    
      3000   168.68438      334.39198     -2339.4246      7.3480045     -2332.0766     -9077.6516    
      3050   160.42505      318.01908     -2339.1271      6.9882226     -2332.1389     -10754.878    
      3100   143.57         284.60642     -2338.4733      6.2540053     -2332.2193     -9913.6515    
      3150   151.95226      301.22301     -2338.9177      6.6191421     -2332.2986     -11033.194    
      3200   160.67622      318.51698     -2339.1547      6.9991636     -2332.1556     -10848.769    
      3250   139.73175      276.99765     -2338.3038      6.0868086     -2332.217      -10253.586    
      3300   141.12772      279.76495     -2338.3906      6.1476179     -2332.243      -11207.65     
      3350   153.23693      303.76969     -2338.9689      6.6751033     -2332.2938     -12386.335    
      3400   144.91233      287.26739     -2338.625       6.3124781     -2332.3125     -13273.746    
      3450   161.5093       320.16843     -2339.3031      7.035453      -2332.2677     -8416.9135    
      3500   147.86133      293.11334     -2338.8009      6.4409385     -2332.36       -12533.749    
      3550   149.44581      296.25434     -2338.8789      6.5099594     -2332.369      -8440.9182    
      3600   140.44824      278.41799     -2338.5175      6.1180194     -2332.3995     -10802.739    
      3650   164.99548      327.07928     -2339.5423      7.1873135     -2332.355      -11282.933    
      3700   162.82331      322.77326     -2339.446       7.0926921     -2332.3533     -10176.227    
      3750   153.88137      305.04718     -2339.0571      6.7031752     -2332.3539     -10632.138    
      3800   157.84694      312.90835     -2339.2439      6.8759183     -2332.3679     -12356.523    
      3850   166.17232      329.41219     -2339.6263      7.2385774     -2332.3877     -9729.6902    
      3900   146.72467      290.86008     -2338.9604      6.3914246     -2332.569      -12416.251    
      3950   144.93853      287.31933     -2338.7506      6.3136194     -2332.437      -10675.317    
      4000   146.13737      289.69584     -2338.7667      6.3658415     -2332.4009     -12670.715    
      4050   135.03983      267.6966      -2338.2892      5.8824253     -2332.4068     -10569.33     
      4100   149.64373      296.64668     -2338.8364      6.5185808     -2332.3178     -10764.135    
      4150   149.40217      296.16783     -2338.9909      6.5080584     -2332.4829     -12821.808    
      4200   152.66694      302.63976     -2339.0153      6.6502742     -2332.365      -13212.657    
      4250   140.5033       278.52714     -2338.4364      6.1204179     -2332.316      -11608.794    
      4300   152.55144      302.4108      -2338.9834      6.6452428     -2332.3382     -11842.336    
      4350   148.19191      293.76868     -2338.8266      6.4553389     -2332.3713     -11318.045    
      4400   156.52436      310.28653     -2339.1682      6.8183059     -2332.3499     -10959.264    
      4450   149.71152      296.78108     -2338.9547      6.5215342     -2332.4331     -11646.13     
      4500   152.3187       301.94942     -2339.0746      6.6351043     -2332.4395     -11110.095    
      4550   151.1554       299.64335     -2339.0534      6.5844303     -2332.469      -13246.143    
      4600   153.19885      303.69419     -2339.2957      6.6734443     -2332.6223     -13638.198    
      4650   143.55344      284.57357     -2338.671       6.2532837     -2332.4178     -9200.1721    
      4700   146.2146       289.84894     -2338.8463      6.3692058     -2332.4771     -14677.082    
      4750   154.937        307.13982     -2339.2204      6.7491594     -2332.4712     -13743.743    
      4800   140.92444      279.36198     -2338.5368      6.138763      -2332.398      -11157.309    
      4850   155.91939      309.08726     -2339.2076      6.7919528     -2332.4157     -10678.161    
      4900   150.81284      298.96427     -2338.9882      6.569508      -2332.4187     -10982.409    
      4950   157.5796       312.37838     -2339.3335      6.8642726     -2332.4692     -8229.7851    
      5000   155.48417      308.2245      -2339.3739      6.7729944     -2332.6009     -12080.517    
      5050   145.81592      289.05861     -2338.739       6.3518388     -2332.3872     -11845.756    
      5100   158.47889      314.1611      -2339.2824      6.9034466     -2332.379      -7571.5573    
      5150   145.0826       287.60491     -2338.5788      6.319895      -2332.2589     -11251.192    
      5200   145.08919      287.61799     -2338.594       6.3201823     -2332.2739     -12797.32     
      5250   144.11829      285.69331     -2338.6606      6.277889      -2332.3827     -11557.792    
      5300   155.67181      308.59647     -2339.1475      6.7811681     -2332.3664     -11811.453    
      5350   166.59478      330.24966     -2339.6127      7.2569802     -2332.3558     -7661.4072    
      5400   154.45578      306.18586     -2339.0417      6.7281969     -2332.3135     -7527.1725    
      5450   159.72626      316.63382     -2339.2767      6.9577828     -2332.3189     -11968.978    
      5500   161.69634      320.53922     -2339.3227      7.0436008     -2332.2791     -12799.848    
      5550   148.1328       293.65149     -2338.721       6.4527637     -2332.2683     -10426.983    
      5600   148.51663      294.41237     -2338.8394      6.4694836     -2332.3699     -10933.349    
      5650   148.51798      294.41505     -2338.7484      6.4695424     -2332.2789     -10173.313    
      5700   155.73411      308.71996     -2339.0939      6.7838818     -2332.31       -10917.188    
      5750   151.11863      299.57046     -2338.7609      6.5828286     -2332.178      -11067.669    
      5800   166.17052      329.40861     -2339.415       7.2384988     -2332.1765     -10995.633    
      5850   147.28336      291.9676      -2338.656       6.4157616     -2332.2403     -10518.457    
      5900   147.18183      291.76634     -2338.6606      6.4113391     -2332.2493     -11356.384    
      5950   157.13701      311.50101     -2339.1484      6.8449931     -2332.3034     -10359.318    
      6000   160.68949      318.54329     -2339.4435      6.9997418     -2332.4438     -12029.429    
      6050   145.11537      287.66988     -2338.515       6.3213226     -2332.1937     -15361.08     
      6100   150.02083      297.39422     -2338.7753      6.5350075     -2332.2403     -10232.759    
      6150   149.54996      296.4608      -2338.7623      6.5144961     -2332.2478     -13893.07     
      6200   155.46385      308.18423     -2338.9489      6.7721094     -2332.1768     -12068.885    
      6250   145.16336      287.76501     -2338.7892      6.3234129     -2332.4657     -11301.466    
      6300   143.29175      284.05482     -2338.4307      6.2418845     -2332.1889     -10648.559    
      6350   145.58937      288.60951     -2338.4322      6.3419701     -2332.0902     -15151.661    
      6400   149.36417      296.0925      -2338.5614      6.5064032     -2332.055      -13078.845    
      6450   147.8976       293.18524     -2338.4902      6.4425184     -2332.0477     -12720.702    
      6500   142.32638      282.14112     -2338.2517      6.1998324     -2332.0519     -8395.6782    
      6550   159.28637      315.76181     -2339.0037      6.938621      -2332.0651     -12229.703    
      6600   151.67456      300.67252     -2338.6712      6.6070454     -2332.0642     -10709.589    
      6650   137.81257      273.19315     -2338.0509      6.0032076     -2332.0477     -11398.038    
      6700   156.62247      310.48101     -2338.8002      6.8225794     -2331.9776     -10952.492    
      6750   159.12718      315.44623     -2338.8952      6.9316863     -2331.9635     -11332.238    
      6800   143.66675      284.7982      -2338.3492      6.2582196     -2332.091      -11086.878    
      6850   141.51144      280.52562     -2338.2433      6.1643331     -2332.0789     -10529.301    
      6900   156.92918      311.08902     -2338.7955      6.8359401     -2331.9596     -12743.022    
      6950   145.39311      288.22045     -2338.2748      6.333421      -2331.9414     -9600.0758    
      7000   139.25237      276.04734     -2338.0055      6.0659262     -2331.9396     -10816.231    
      7050   139.90163      277.33442     -2337.9966      6.0942088     -2331.9024     -11872.998    
      7100   155.36623      307.99071     -2338.6848      6.767857      -2331.9169     -10350.543    
      7150   146.99086      291.38777     -2338.319       6.4030204     -2331.9159     -12961.163    
      7200   143.82504      285.11199     -2338.1824      6.265115      -2331.9172     -13702.218    
      7250   152.28449      301.88161     -2338.5666      6.6336144     -2331.933      -13575.582    
      7300   147.54582      292.48789     -2338.4131      6.4271947     -2331.9859     -8452.6608    
      7350   157.74464      312.70555     -2338.7934      6.8714619     -2331.9219     -12363.555    
      7400   152.79658      302.89674     -2338.5914      6.655921      -2331.9355     -15368.765    
      7450   141.08063      279.6716      -2338.1397      6.1455665     -2331.9941     -12461.358    
      7500   149.21615      295.79907     -2338.4233      6.4999553     -2331.9233     -9381.4676    
      7550   152.67461      302.65497     -2338.4084      6.6506082     -2331.7578     -11123.009    
      7600   157.21497      311.65557     -2338.6594      6.8483894     -2331.811      -9984.1464    
      7650   156.94894      311.12819     -2338.6474      6.8368007     -2331.8106     -10999.404    
      7700   150.43912      298.22342     -2338.3694      6.5532285     -2331.8162     -12412.66     
      7750   148.02646      293.44068     -2338.5937      6.4481314     -2332.1456     -11850.506    
      7800   161.08128      319.31996     -2338.8148      7.0168084     -2331.798      -8792.0462    
      7850   145.45239      288.33797     -2338.0577      6.3360033     -2331.7217     -7927.1603    
      7900   138.54283      274.64078     -2337.7629      6.0350182     -2331.7279     -8300.1862    
      7950   163.23014      323.57975     -2338.8898      7.1104141     -2331.7794     -9844.706     
      8000   157.33036      311.8843      -2338.8388      6.8534157     -2331.9854     -6815.3751    
      8050   149.54395      296.44889     -2338.2265      6.5142344     -2331.7123     -9987.1607    
      8100   153.92038      305.12451     -2338.4462      6.7048746     -2331.7414     -9710.3511    
      8150   160.46564      318.09953     -2338.7364      6.9899906     -2331.7464     -9498.6692    
      8200   156.84953      310.93112     -2338.6193      6.8324703     -2331.7868     -11906.503    
      8250   156.00068      309.2484      -2338.771       6.7954938     -2331.9755     -8500.0494    
      8300   170.35777      337.70923     -2339.1207      7.4208985     -2331.6998     -11724.824    
      8350   157.62737      312.47308     -2338.6273      6.8663537     -2331.7609     -8307.4405    
      8400   145.20036      287.83836     -2338.0847      6.3250247     -2331.7597     -9254.9596    
      8450   169.49433      335.99759     -2339.1924      7.3832865     -2331.8091     -11698.041    
      8500   154.58766      306.4473      -2338.7855      6.7339419     -2332.0516     -10108.588    
      8550   153.94477      305.17286     -2338.5563      6.705937      -2331.8504     -14511.957    
      8600   147.17242      291.74767     -2338.257       6.4109289     -2331.846      -10675.343    
      8650   155.34729      307.95316     -2338.6122      6.7670318     -2331.8452     -10995.661    
      8700   158.25987      313.72691     -2338.7371      6.8939057     -2331.8432     -13977.46     
      8750   163.70271      324.51655     -2338.8269      7.1309995     -2331.6959     -10647.504    
      8800   153.5465       304.38336     -2338.4194      6.6885883     -2331.7309     -12291.351    
      8850   152.59499      302.49714     -2338.3895      6.64714       -2331.7423     -9693.5283    
      8900   162.1229       321.38481     -2338.8644      7.0621821     -2331.8022     -10932.95     
      8950   154.49969      306.27291     -2338.7597      6.7301097     -2332.0296     -12157.066    
      9000   171.83439      340.6364      -2339.2724      7.4852208     -2331.7872     -11177.692    
      9050   153.6509       304.59031     -2338.4803      6.6931358     -2331.7872     -11943.372    
      9100   153.00814      303.31614     -2338.4708      6.6651369     -2331.8057     -11159.599    
      9150   151.05284      299.44005     -2338.3979      6.5799629     -2331.8179     -12847.855    
      9200   155.3371       307.93296     -2338.7187      6.7665881     -2331.9521     -11132.976    
      9250   159.19645      315.58355     -2338.8004      6.9347039     -2331.8657     -9358.1698    
      9300   158.20377      313.61572     -2338.9697      6.8914622     -2332.0783     -14235.919    
      9350   151.25319      299.83721     -2338.4583      6.5886901     -2331.8696     -11174.585    
      9400   147.29091      291.98256     -2338.2736      6.4160904     -2331.8575     -12173.79     
      9450   156.97813      311.18605     -2338.714       6.8380722     -2331.8759     -13782.609    
      9500   158.87736      314.951       -2338.8474      6.9208039     -2331.9266     -10525.357    
      9550   153.93415      305.15181     -2338.5465      6.7054744     -2331.8411     -10650.06     
      9600   163.05382      323.23023     -2339.0671      7.1027336     -2331.9644     -9992.4556    
      9650   164.61684      326.32867     -2339.0577      7.1708196     -2331.8869     -8887.0823    
      9700   158.27524      313.75738     -2338.8016      6.8945751     -2331.907      -8869.9173    
      9750   149.05765      295.48487     -2338.4264      6.493051      -2331.9334     -9001.8146    
      9800   156.7848       310.80282     -2338.8474      6.8296509     -2332.0177     -10001.355    
      9850   155.16167      307.58519     -2339.0495      6.758946      -2332.2905     -10525.86     
      9900   164.74082      326.57445     -2339.2431      7.1762203     -2332.0669     -9338.0876    
      9950   154.4257       306.12624     -2338.7016      6.7268867     -2331.9747     -7925.5482    
     10000   159.091        315.37452     -2338.8647      6.9301106     -2331.9346     -10503.672    
     10050   151.67384      300.67108     -2338.5751      6.607014      -2331.9681     -10404.667    
     10100   154.81043      306.88891     -2338.7248      6.7436458     -2331.9811     -8745.7016    
     10150   151.42365      300.17512     -2338.5709      6.5961156     -2331.9748     -10288.715    
     10200   157.46468      312.15056     -2338.9655      6.8592666     -2332.1062     -11774.752    
     10250   159.20713      315.60472     -2339.0832      6.9351689     -2332.1481     -6939.8915    
     10300   164.93481      326.959       -2339.208       7.1846706     -2332.0233     -6861.7992    
     10350   162.22291      321.58307     -2339.099       7.0665386     -2332.0325     -7771.8587    
     10400   158.88864      314.97335     -2338.9783      6.9212952     -2332.0571     -9291.4089    
     10450   168.17779      333.38773     -2339.4982      7.325937      -2332.1723     -10588.176    
     10500   152.0681       301.45264     -2338.8167      6.6241879     -2332.1926     -10530.213    
     10550   151.93096      301.18079     -2338.7066      6.6182144     -2332.0884     -11747.36     
     10600   149.29457      295.95453     -2338.5788      6.5033714     -2332.0755     -13041.136    
     10650   155.1969       307.65503     -2338.8714      6.7604807     -2332.1109     -12731.585    
     10700   148.56449      294.50726     -2338.6114      6.4715687     -2332.1398     -13344.352    
     10750   149.9345       297.22309     -2338.7669      6.531247      -2332.2356     -13588.449    
     10800   153.52614      304.343       -2339.133       6.6877016     -2332.4453     -11769.532    
     10850   155.07948      307.42226     -2338.9934      6.7553657     -2332.238      -11495.493    
     10900   145.52325      288.47845     -2338.5214      6.3390902     -2332.1823     -10929.244    
     10950   166.07339      329.21608     -2339.454       7.2342681     -2332.2198     -9823.7404    
     11000   158.6026       314.40634     -2339.1118      6.9088355     -2332.2029     -9494.0275    
     11050   147.38899      292.177       -2339.0897      6.420363      -2332.6693     -12700.84     
     11100   160.58779      318.34167     -2339.4617      6.9953115     -2332.4664     -12696.271    
     11150   150.79264      298.92423     -2338.9064      6.5686282     -2332.3378     -9889.1679    
     11200   146.59902      290.611       -2338.71        6.3859514     -2332.324      -13516.114    
     11250   155.21788      307.69663     -2339.1243      6.7613948     -2332.3629     -12636.2      
     11300   147.16335      291.72969     -2338.8821      6.4105338     -2332.4715     -13548.495    
     11350   152.26559      301.84415     -2339.1452      6.6327911     -2332.5124     -6270.8648    
     11400   155.07656      307.41648     -2339.5623      6.7552389     -2332.8071     -12930.756    
     11450   166.46718      329.99671     -2339.6713      7.2514218     -2332.4199     -12410.571    
     11500   148.55657      294.49156     -2338.9174      6.4712236     -2332.4462     -9459.9716    
     11550   150.02007      297.39274     -2338.9963      6.5349748     -2332.4613     -8609.8077    
     11600   151.46491      300.25691     -2339.5259      6.5979127     -2332.928      -12000.301    
     11650   161.05013      319.25821     -2339.611       7.0154516     -2332.5955     -11890.254    
     11700   152.15088      301.61675     -2339.207       6.6277943     -2332.5792     -11967.909    
     11750   153.76772      304.8219      -2339.1577      6.6982248     -2332.4595     -13906.491    
     11800   149.08116      295.53148     -2338.9742      6.4940752     -2332.4801     -13087.784    
     11850   144.65395      286.75519     -2338.8527      6.3012229     -2332.5515     -9911.7511    
     11900   162.58608      322.303       -2339.72        7.0823586     -2332.6377     -13467.956    
     11950   160.25468      317.68133     -2339.8541      6.980801      -2332.8733     -9199.2982    
     12000   155.91945      309.08738     -2339.246       6.7919555     -2332.454      -9158.7911    
     12050   134.27595      266.18232     -2338.316       5.8491501     -2332.4668     -7102.2551    
     12100   151.96908      301.25635     -2339.0979      6.6198746     -2332.478      -10379.875    
     12150   161.83864      320.8213      -2339.5895      7.0497993     -2332.5397     -10790.511    
     12200   151.33612      300.0016      -2339.3189      6.5923026     -2332.7266     -9406.9874    
     12250   148.60387      294.58532     -2338.9791      6.473284      -2332.5058     -11095.234    
     12300   146.40053      290.21751     -2338.8993      6.3773048     -2332.522      -12666.552    
     12350   131.05471      259.79669     -2338.1693      5.7088308     -2332.4605     -13398.187    
     12400   133.4656       264.57592     -2338.3554      5.8138506     -2332.5416     -12772.404    
     12450   161.50847      320.1668      -2339.5301      7.0354172     -2332.4947     -13175.889    
     12500   158.85811      314.91284     -2339.5408      6.9199656     -2332.6209     -11371.734    
     12550   165.60733      328.29217     -2339.6875      7.2139659     -2332.4736     -9340.3259    
     12600   146.72091      290.85263     -2338.8182      6.391261      -2332.4269     -7591.4535    
     12650   148.77148      294.91758     -2338.918       6.4805852     -2332.4374     -11987.464    
     12700   172.02205      341.00841     -2340.0303      7.4933954     -2332.5369     -8147.2572    
     12750   155.03557      307.33522     -2339.4062      6.7534531     -2332.6527     -13113.399    
     12800   151.33269      299.9948      -2339.1474      6.5921531     -2332.5552     -12302.785    
     12850   128.00963      253.76026     -2338.1888      5.576185      -2332.6126     -10572.194    
     12900   149.77814      296.91314     -2339.132       6.524436      -2332.6075     -13235.906    
     12950   155.4765       308.2093      -2339.4975      6.7726604     -2332.7248     -10884.07     
     13000   161.68542      320.51757     -2339.7109      7.043125      -2332.6678     -8607.402     
     13050   165.44174      327.96391     -2339.7381      7.2067527     -2332.5314     -7184.6573    
     13100   152.42608      302.16229     -2339.1842      6.639782      -2332.5445     -9173.4434    
     13150   158.51927      314.24114     -2339.4717      6.9052054     -2332.5665     -12374.009    
     13200   158.09509      313.40026     -2339.646       6.8867277     -2332.7592     -9368.6239    
     13250   148.04722      293.48184     -2339.103       6.4490358     -2332.654      -10713.543    
     13300   148.70825      294.79224     -2338.992       6.477831      -2332.5142     -12508.612    
     13350   141.23852      279.9846      -2338.6829      6.1524444     -2332.5305     -15478.021    
     13400   136.23316      270.06221     -2338.4979      5.9344077     -2332.5635     -11934.009    
     13450   151.39751      300.1233      -2339.3587      6.5949767     -2332.7637     -10788.992    
     13500   156.41066      310.06114     -2339.7832      6.8133531     -2332.9699     -12389.807    
     13550   159.41538      316.01754     -2339.3853      6.9442404     -2332.4411     -12503.527    
     13600   147.93815      293.26562     -2338.8984      6.4442846     -2332.4541     -7647.851     
     13650   153.63143      304.55172     -2339.1488      6.6922878     -2332.4566     -9094.5773    
     13700   155.0333       307.33072     -2339.7963      6.7533543     -2333.0429     -10760.72     
     13750   152.1639       301.64256     -2339.1275      6.6283613     -2332.4991     -9878.5248    
     13800   142.67974      282.8416      -2338.6725      6.2152248     -2332.4572     -14069.789    
     13850   138.9969       275.54092     -2338.3741      6.054798      -2332.3193     -10779.377    
     13900   161.00491      319.16856     -2339.488       7.0134817     -2332.4745     -11936.652    
     13950   159.84179      316.86284     -2339.474       6.9628152     -2332.5111     -10724.693    
     14000   145.68142      288.79198     -2339.2633      6.3459799     -2332.9174     -10131.727    
     14050   152.17505      301.66466     -2338.9617      6.6288469     -2332.3329     -8935.6781    
     14100   149.38193      296.12772     -2338.8523      6.507177      -2332.3451     -5897.1355    
     14150   170.75365      338.494       -2339.7912      7.4381432     -2332.3531     -12627.837    
     14200   159.85311      316.88529     -2339.6904      6.9633085     -2332.7271     -11812.609    
     14250   150.08773      297.52685     -2339.0859      6.5379217     -2332.548      -9698.7661    
     14300   154.27712      305.83171     -2339.144       6.7204147     -2332.4236     -13650.027    
     14350   146.80286      291.01508     -2338.8289      6.3948307     -2332.434      -13435.191    
     14400   167.67179      332.38468     -2339.9072      7.3038955     -2332.6033     -9838.4704    
     14450   165.24375      327.57144     -2339.9072      7.1981284     -2332.7091     -9813.8645    
     14500   153.01591      303.33154     -2339.0019      6.6654755     -2332.3364     -10122.182    
     14550   136.2033       270.00302     -2338.2735      5.9331069     -2332.3404     -9403.5883    
     14600   174.55349      346.02663     -2339.9661      7.6036669     -2332.3625     -12393.046    
     14650   158.36079      313.92698     -2339.4837      6.898302      -2332.5854     -11161.534    
     14700   160.51483      318.19704     -2339.3271      6.9921333     -2332.335      -11774.011    
     14750   141.40694      280.31846     -2338.4106      6.1597808     -2332.2508     -14335.744    
     14800   143.18236      283.83798     -2338.4448      6.2371195     -2332.2077     -12914.99     
     14850   152.70973      302.72459     -2338.8798      6.6521382     -2332.2277     -15559.967    
     14900   145.10029      287.63999     -2338.7752      6.3206658     -2332.4545     -10816.891    
     14950   167.47626      331.99705     -2339.8332      7.2953777     -2332.5378     -9873.3096    
     15000   165.51735      328.1138      -2339.617       7.2100463     -2332.4069     -11004.094    
     15050   145.57266      288.57639     -2338.6313      6.3412425     -2332.2901     -8715.7224    
     15100   151.34776      300.02468     -2338.8905      6.5928096     -2332.2977     -9283.2041    
     15150   180.0736       356.96944     -2340.1322      7.8441266     -2332.288      -10670.433    
     15200   156.32866      309.89858     -2339.2467      6.8097811     -2332.4369     -13000.312    
     15250   146.62526      290.66301     -2338.8418      6.3870943     -2332.4547     -11690.749    
     15300   152.14705      301.60916     -2339.0649      6.6276274     -2332.4372     -13256.968    
     15350   139.79389      277.12082     -2338.2961      6.0895153     -2332.2066     -13958.204    
     15400   130.7577       259.20791     -2337.9719      5.6958929     -2332.276      -13937.977    
     15450   160.26248      317.69679     -2339.341       6.9811407     -2332.3599     -13422.967    
     15500   158.2122       313.63241     -2339.3739      6.8918291     -2332.4821     -9743.5187    
     15550   174.55394      346.02752     -2339.8175      7.6036864     -2332.2138     -11741.225    
     15600   147.35584      292.11127     -2338.5678      6.4189187     -2332.1489     -9486.0057    
     15650   147.93898      293.26727     -2338.6084      6.444321      -2332.1641     -9099.0779    
     15700   181.80329      360.39829     -2340.0844      7.9194731     -2332.1649     -12111.099    
     15750   170.83146      338.64826     -2339.7216      7.4415328     -2332.2801     -9706.9853    
     15800   152.83416      302.97125     -2338.81        6.6575583     -2332.1524     -15246.548    
     15850   136.97312      271.52906     -2338.1512      5.9666406     -2332.1845     -13334.625    
     15900   143.04317      283.56205     -2338.4338      6.2310562     -2332.2028     -14710.436    
     15950   146.36999      290.15699     -2338.5299      6.3759748     -2332.1539     -13142.018    
     16000   155.73947      308.7306      -2339.2495      6.7841155     -2332.4654     -9990.4434    
     16050   167.15835      331.36684     -2339.4388      7.2815294     -2332.1573     -11181.437    
     16100   167.02732      331.1071      -2339.4632      7.2758218     -2332.1874     -9858.5556    
     16150   141.62535      280.75142     -2338.3699      6.1692948     -2332.2006     -8861.3237    
     16200   168.39058      333.80956     -2339.5638      7.3352062     -2332.2286     -9877.1841    
     16250   172.33865      341.63602     -2339.786       7.5071867     -2332.2789     -9768.0286    
     16300   146.05479      289.53215     -2338.8793      6.3622445     -2332.5171     -10725.519    
     16350   155.10223      307.46736     -2339.0055      6.7563569     -2332.2492     -10942.177    
     16400   156.75258      310.73893     -2339.1094      6.8282471     -2332.2811     -10447.732    
     16450   157.23577      311.6968      -2339.409       6.8492954     -2332.5597     -10698.567    
     16500   164.37154      325.84241     -2339.6798      7.1601344     -2332.5197     -9893.8369    
     16550   153.68733      304.66254     -2338.9742      6.6947231     -2332.2794     -6638.7086    
     16600   138.47672      274.50973     -2338.3235      6.0321385     -2332.2913     -9141.5164    
     16650   170.6107       338.21062     -2339.742       7.4319162     -2332.3101     -8156.4765    
     16700   160.16798      317.50946     -2339.2229      6.9770242     -2332.2459     -11441.376    
     16750   153.27594      303.84702     -2338.9871      6.6768026     -2332.3103     -8530.3928    
     16800   140.27649      278.0775      -2338.4308      6.1105375     -2332.3203     -13385.434    
     16850   154.37015      306.01612     -2339.0065      6.724467      -2332.282      -12433.822    
     16900   171.81352      340.59504     -2339.9392      7.4843118     -2332.4549     -10864.029    
     16950   162.97036      323.06477     -2339.2577      7.0990978     -2332.1586     -9324.6205    
     17000   145.26871      287.97385     -2338.5067      6.328002      -2332.1787     -9508.4699    
     17050   158.80477      314.8071      -2339.112       6.917642      -2332.1943     -9485.3241    
     17100   153.85739      304.99966     -2339.5169      6.702131      -2332.8147     -11964.698    
     17150   152.85874      303.01997     -2339.2616      6.6586289     -2332.603      -10262.311    
     17200   149.72473      296.80726     -2338.8763      6.5221095     -2332.3541     -13061.121    
     17250   139.30434      276.15038     -2338.4609      6.0681904     -2332.3927     -14390.532    
     17300   140.34793      278.21913     -2338.6289      6.1136496     -2332.5152     -12968.551    
     17350   149.338        296.04061     -2339.0316      6.505263      -2332.5263     -11389.079    
     17400   141.09633      279.70273     -2339.2982      6.1462507     -2333.152      -9726.6225    
     17450   144.14389      285.74406     -2338.9014      6.2790041     -2332.6224     -12828.292    
     17500   139.78592      277.10504     -2338.7668      6.0891683     -2332.6777     -10919.907    
     17550   141.2336       279.97483     -2338.767       6.1522299     -2332.6148     -11402.915    
     17600   145.43872      288.31087     -2338.9344      6.3354079     -2332.599      -10342.121    
     17650   160.07343      317.32204     -2339.7415      6.9729059     -2332.7686     -10530.197    
     17700   143.26841      284.00856     -2338.9682      6.2408678     -2332.7273     -10944.01     
     17750   153.00618      303.31225     -2339.4656      6.6650515     -2332.8006     -9322.507     
     17800   146.50363      290.42189     -2338.8196      6.3817959     -2332.4378     -11640.85     
     17850   148.95161      295.27467     -2339.0738      6.4884319     -2332.5854     -11099.701    
     17900   153.21333      303.72289     -2339.1913      6.6740751     -2332.5172     -11797.358    
     17950   156.70463      310.64388     -2339.2336      6.8261583     -2332.4075     -12801.333    
     18000   146.84267      291.094       -2338.8236      6.396565      -2332.427      -11246.118    
     18050   149.78313      296.92303     -2338.9635      6.5246533     -2332.4388     -10601.772    
     18100   142.41475      282.3163      -2338.8242      6.2036818     -2332.6205     -12268.406    
     18150   140.7457       279.00766     -2338.8057      6.130977      -2332.6747     -9757.9956    
     18200   152.63174      302.56997     -2339.2868      6.6487405     -2332.638      -10121.869    
     18250   140.64222      278.80252     -2338.7425      6.1264692     -2332.6161     -10528.775    
     18300   152.58932      302.48588     -2339.0944      6.6468927     -2332.4475     -11648.513    
     18350   154.74054      306.75036     -2339.0077      6.7406014     -2332.2671     -12127.464    
     18400   152.59503      302.4972      -2338.9102      6.6471414     -2332.263      -13021.489    
     18450   144.76735      286.97998     -2338.7507      6.3061626     -2332.4445     -9008.7765    
     18500   139.84485      277.22184     -2338.6105      6.091735      -2332.5188     -12111.508    
     18550   153.14225      303.58199     -2339.0771      6.6709789     -2332.4061     -12926.06     
     18600   131.1852       260.05536     -2338.6792      5.7145149     -2332.9647     -8765.2218    
     18650   150.38873      298.12355     -2339.1761      6.5510338     -2332.625      -11788.432    
     18700   140.52996      278.57999     -2338.6399      6.1215792     -2332.5183     -11341.791    
     18750   146.75659      290.92336     -2338.8749      6.3928152     -2332.4821     -11111.148    
     18800   148.55907      294.49651     -2338.9729      6.4713324     -2332.5016     -12862.625    
     18850   151.36288      300.05464     -2339.1404      6.5934681     -2332.5469     -10579.321    
     18900   148.75965      294.89412     -2339.0159      6.4800697     -2332.5358     -9594.7442    
     18950   176.60224      350.08798     -2339.9066      7.6929118     -2332.2137     -9970.8346    
     19000   155.9369       309.12198     -2338.8597      6.7927159     -2332.067      -10622.278    
     19050   145.31326      288.06216     -2338.409       6.3299427     -2332.0791     -7270.2893    
     19100   169.62534      336.25728     -2339.559       7.3889931     -2332.17       -11719.344    
     19150   169.69526      336.3959      -2339.692       7.392039      -2332.2999     -10745.032    
     19200   156.8832       310.99788     -2339.1592      6.8339372     -2332.3253     -8714.6936    
     19250   140.25781      278.04048     -2338.2098      6.109724      -2332.1001     -9700.7103    
     19300   140.83386      279.18242     -2338.1718      6.1348171     -2332.037      -15364.374    
     19350   141.34575      280.19716     -2338.2036      6.1571152     -2332.0465     -10040.381    
     19400   143.42224      284.3135      -2338.3375      6.2475687     -2332.09       -12052.173    
     19450   151.07607      299.48608     -2338.8013      6.5809745     -2332.2204     -11481.239    
     19500   149.1951       295.75735     -2338.8714      6.4990384     -2332.3724     -11866.22     
     19550   174.37301      345.66884     -2339.4177      7.5958048     -2331.8219     -8652.7469    
     19600   165.71664      328.50886     -2339.0273      7.2187276     -2331.8086     -5244.0549    
     19650   154.60658      306.4848      -2338.5572      6.7347659     -2331.8225     -7663.6435    
     19700   180.3762       357.56929     -2339.8168      7.857308      -2331.9595     -9265.8465    
     19750   179.5213       355.87458     -2339.755       7.820068      -2331.935      -9141.2849    
     19800   159.87117      316.92108     -2339.0913      6.964095      -2332.1272     -8744.6482    
     19850   152.32746      301.96679     -2338.6241      6.6354861     -2331.9886     -12682.059    
     19900   151.38732      300.1031      -2338.6609      6.594533      -2332.0664     -8997.8124    
     19950   167.61742      332.27688     -2339.2231      7.3015268     -2331.9216     -10922.61     
     20000   183.89916      364.55304     -2339.8499      8.0107703     -2331.8392     -12744.04     
     20050   160.33951      317.8495      -2338.8422      6.9844963     -2331.8577     -9185.1125    
     20100   156.34358      309.92817     -2338.6708      6.8104311     -2331.8603     -10637.589    
     20150   163.95342      325.01354     -2339.5593      7.1419206     -2332.4174     -10059.252    
     20200   151.69422      300.71148     -2338.9167      6.6079016     -2332.3088     -13994.707    
     20250   141.17222      279.85316     -2338.4583      6.1495562     -2332.3088     -13740.379    
     20300   139.13118      275.80711     -2338.1292      6.0606474     -2332.0685     -12151.5      
     20350   145.48459      288.4018      -2338.4746      6.337406      -2332.1372     -10926.337    
     20400   140.86662      279.24736     -2338.4332      6.1362442     -2332.297      -12680.09     
     20450   154.39932      306.07395     -2338.8274      6.7257377     -2332.1017     -12819.703    
     20500   139.94186      277.41417     -2338.3837      6.0959612     -2332.2877     -11862.269    
     20550   141.00843      279.52847     -2338.4848      6.1424213     -2332.3424     -13624.771    
     20600   138.54364      274.64239     -2338.2147      6.0350536     -2332.1796     -12083.925    
     20650   129.23352      256.18644     -2337.6884      5.6294984     -2332.0589     -14544.278    
     20700   151.60194      300.52855     -2338.928       6.6038819     -2332.3241     -11351.513    
     20750   143.30016      284.07148     -2338.3126      6.2422506     -2332.0704     -12289.455    
     20800   144.96126      287.36437     -2338.6255      6.3146093     -2332.3109     -13565.022    
     20850   146.55336      290.52048     -2338.4469      6.3839623     -2332.063      -11733.507    
     20900   150.01944      297.39147     -2338.7517      6.534947      -2332.2167     -11384.596    
     20950   156.55017      310.33769     -2338.8789      6.8194301     -2332.0595     -11992.228    
     21000   152.11394      301.54352     -2338.8614      6.626185      -2332.2352     -11428.679    
     21050   150.81859      298.97567     -2338.5967      6.5697586     -2332.0269     -11380.213    
     21100   151.76182      300.84549     -2338.7563      6.6108463     -2332.1454     -9919.3158    
     21150   148.91799      295.20801     -2338.4936      6.4869672     -2332.0066     -11544.394    
     21200   167.33898      331.72492     -2339.356       7.289398      -2332.0666     -10886.557    
     21250   153.34713      303.98814     -2338.6137      6.6799036     -2331.9337     -9379.279     
     21300   149.93203      297.21821     -2338.5121      6.5311397     -2331.9809     -14552.108    
     21350   154.77943      306.82747     -2338.5932      6.7422957     -2331.8509     -14087.817    
     21400   154.06189      305.40505     -2338.555       6.7110391     -2331.844      -11918.799    
     21450   154.88553      307.03778     -2338.6349      6.7469171     -2331.888      -10667.268    
     21500   157.20538      311.63655     -2338.7108      6.8479715     -2331.8628     -13152.156    
     21550   159.05902      315.31111     -2338.8517      6.9287172     -2331.923      -12053.536    
     21600   154.98248      307.22997     -2338.6327      6.7511403     -2331.8815     -9312.7454    
     21650   135.12838      267.87214     -2337.8084      5.8862827     -2331.9221     -12305.275    
     21700   159.36132      315.91038     -2338.8486      6.9418857     -2331.9067     -13011.643    
     21750   157.09406      311.41586     -2338.7543      6.8431221     -2331.9112     -12827.994    
     21800   148.46523      294.31049     -2338.5009      6.4672449     -2332.0336     -12212.561    
     21850   151.20369      299.73908     -2338.5538      6.586534      -2331.9673     -12717.766    
     21900   153.73334      304.75375     -2338.755       6.6967273     -2332.0583     -9956.9665    
     21950   136.86224      271.30926     -2337.8266      5.9618106     -2331.8648     -13536.684    
     22000   165.11628      327.31875     -2339.2257      7.1925756     -2332.0331     -12328.897    
     22050   152.76815      302.84038     -2338.5923      6.6546826     -2331.9376     -12880.27     
     22100   153.41118      304.11511     -2338.7376      6.6826938     -2332.0549     -13336.482    
     22150   158.16327      313.53542     -2338.8         6.8896979     -2331.9103     -11344.305    
     22200   151.60937      300.54329     -2338.6743      6.6042058     -2332.0701     -15724.903    
     22250   145.26801      287.97247     -2338.1107      6.3279717     -2331.7828     -12845.109    
     22300   144.93062      287.30364     -2338.0818      6.3132747     -2331.7685     -12223.495    
     22350   154.00127      305.28487     -2338.4804      6.7083983     -2331.772      -11255.364    
     22400   154.23043      305.73914     -2338.4539      6.7183806     -2331.7355     -15571.968    
     22450   141.17965      279.8679      -2338.1865      6.1498802     -2332.0366     -13413.44     
     22500   159.8342       316.84781     -2338.8293      6.9624849     -2331.8668     -13422.789    
     22550   163.45454      324.02458     -2339           7.1201889     -2331.8798     -10546.329    
     22600   166.33827      329.74116     -2339.0273      7.2458063     -2331.7815     -13964.134    
     22650   162.07481      321.28948     -2338.8519      7.0600872     -2331.7918     -14156.76     
     22700   161.732        320.60991     -2339.0979      7.0451541     -2332.0528     -11531.726    
     22750   161.81346      320.77139     -2339.1986      7.0487027     -2332.1499     -13804.571    
     22800   160.34621      317.86277     -2338.782       6.984788      -2331.7973     -10639.222    
     22850   153.06561      303.43006     -2338.5169      6.6676403     -2331.8492     -12954.163    
     22900   161.68539      320.51752     -2339.0316      7.0431239     -2331.9884     -12476.875    
     22950   165.18569      327.45634     -2339.0008      7.1955993     -2331.8052     -11948.493    
     23000   173.97213      344.87417     -2339.3112      7.5783424     -2331.7328     -8219.7491    
     23050   161.70166      320.54976     -2338.8039      7.0438324     -2331.7601     -7514.513     
     23100   163.76065      324.63141     -2338.9036      7.1335235     -2331.7701     -9778.3416    
     23150   173.65364      344.2428      -2339.4666      7.5644687     -2331.9021     -9261.7484    
     23200   181.15605      359.11523     -2339.827       7.8912787     -2331.9357     -8686.0423    
     23250   162.50738      322.14698     -2338.9705      7.0789301     -2331.8915     -11718.098    
     23300   163.22334      323.56628     -2339.3262      7.1101181     -2332.216      -10522.801    
     23350   153.99466      305.27177     -2338.724       6.7081104     -2332.0159     -11174.113    
     23400   173.7042       344.34304     -2339.586       7.5666713     -2332.0193     -10769.826    
     23450   190.94424      378.51888     -2339.9972      8.3176589     -2331.6795     -10365.189    
     23500   175.98413      348.86265     -2339.2267      7.6659862     -2331.5607     -6888.1963    
     23550   170.53469      338.05993     -2339.0124      7.428605      -2331.5838     -10916.732    
     23600   179.13112      355.1011      -2339.4211      7.8030713     -2331.618      -11571.073    
     23650   168.88549      334.79065     -2339.3437      7.356765      -2331.9869     -11012.424    
     23700   164.43508      325.96837     -2339.0436      7.1629022     -2331.8807     -8870.8696    
     23750   157.13498      311.49698     -2338.9232      6.8449047     -2332.0783     -11812.074    
     23800   151.45353      300.23436     -2338.5215      6.5974173     -2331.9241     -10895.378    
     23850   152.78992      302.88354     -2338.6128      6.655631      -2331.9572     -10004.387    
     23900   163.39979      323.91605     -2339.0047      7.117804      -2331.8869     -9438.4586    
     23950   160.64098      318.44713     -2338.8818      6.9976287     -2331.8841     -12388.19     
     24000   152.3924       302.09551     -2338.5362      6.6383147     -2331.8979     -11098.515    
     24050   161.44773      320.04639     -2338.8324      7.0327713     -2331.7997     -14618.213    
     24100   151.69298      300.70902     -2338.4258      6.6078477     -2331.8179     -8420.2642    
     24150   156.10522      309.45563     -2338.7325      6.8000476     -2331.9325     -13395.317    
     24200   174.2446       345.4143      -2339.4999      7.5902113     -2331.9097     -8514.5321    
     24250   166.693        330.44436     -2339.2934      7.2612585     -2332.0321     -15020.228    
     24300   164.79356      326.679       -2339.1225      7.1785177     -2331.944      -11774.47     
     24350   170.52039      338.03161     -2339.4341      7.4279824     -2332.0061     -13242.734    
     24400   172.81277      342.57591     -2339.3719      7.5278399     -2331.844      -11489.246    
     24450   174.4764       345.8738      -2339.5141      7.6003085     -2331.9138     -15293.047    
     24500   171.07916      339.13928     -2339.5292      7.4523226     -2332.0769     -10766.577    
     24550   164.77408      326.64038     -2339.288       7.177669      -2332.1103     -12083.264    
     24600   174.35465      345.63245     -2339.4902      7.5950051     -2331.8952     -10536.752    
     24650   156.8593       310.9505      -2338.5131      6.8328962     -2331.6802     -9891.4245    
     24700   174.70175      346.32052     -2339.3191      7.610125      -2331.709      -9580.2179    
     24750   167.14834      331.34701     -2339.6916      7.2810936     -2332.4105     -8586.5976    
     24800   152.79102      302.88573     -2338.8566      6.655679      -2332.2009     -9872.9883    
     24850   146.05095      289.52454     -2338.8085      6.3620772     -2332.4464     -11075.748    
     24900   162.04986      321.24001     -2339.1944      7.0590003     -2332.1354     -14466.364    
     24950   150.83132      299.00092     -2338.6889      6.5703133     -2332.1186     -14303.874    
     25000   140.8054       279.126       -2338.547       6.1335773     -2332.4134     -12226.004    
     25050   168.57777      334.18064     -2339.5273      7.3433606     -2332.1839     -9915.939     
     25100   170.08164      337.16183     -2339.6682      7.4088698     -2332.2594     -8670.1186    
     25150   170.7309       338.44889     -2339.5158      7.437152      -2332.0786     -12117.851    
     25200   158.53879      314.27983     -2339.0036      6.9060556     -2332.0975     -6163.3863    
     25250   168.10628      333.24598     -2339.4414      7.3228221     -2332.1185     -10901.468    
     25300   170.16124      337.31964     -2339.7711      7.4123375     -2332.3588     -10643.17     
     25350   161.42136      319.99411     -2339.3659      7.0316224     -2332.3343     -9352.3394    
     25400   154.23287      305.74399     -2338.9758      6.7184871     -2332.2573     -9328.8972    
     25450   175.77231      348.44275     -2339.9357      7.6567592     -2332.2789     -9254.1799    
     25500   160.60034      318.36655     -2339.3615      6.9958581     -2332.3656     -12406.595    
     25550   167.69393      332.42856     -2339.7547      7.3048599     -2332.4498     -10519.488    
     25600   152.90521      303.11209     -2338.9154      6.6606532     -2332.2548     -10113.128    
     25650   154.76262      306.79413     -2339.0151      6.7415632     -2332.2736     -10994.156    
     25700   170.03661      337.07257     -2339.7529      7.4069083     -2332.346      -9132.8123    
     25750   165.71464      328.50491     -2339.7892      7.2186407     -2332.5706     -10080.97     
     25800   156.36579      309.97219     -2339.1564      6.8113985     -2332.345      -7790.3628    
     25850   144.14043      285.73721     -2338.6424      6.2788537     -2332.3636     -9589.1879    
     25900   170.29062      337.57612     -2339.7506      7.4179734     -2332.3326     -10269.178    
     25950   158.68507      314.56981     -2339.4948      6.9124277     -2332.5824     -10817.647    
     26000   149.65933      296.67761     -2339.0323      6.5192605     -2332.5131     -9319.4047    
     26050   150.57765      298.49805     -2339.0858      6.5592633     -2332.5265     -7546.5801    
     26100   174.60269      346.12416     -2340.3166      7.6058101     -2332.7108     -9305.2207    
     26150   170.77298      338.53232     -2339.8359      7.4389853     -2332.3969     -11246.473    
     26200   149.33984      296.04427     -2338.8659      6.5053433     -2332.3606     -10365.812    
     26250   151.07265      299.47932     -2338.9519      6.5808259     -2332.3711     -9593.8945    
     26300   169.26889      335.55067     -2340.0234      7.3734659     -2332.6499     -10632.807    
     26350   174.72855      346.37365     -2340.0635      7.6112925     -2332.4522     -10907.204    
     26400   157.14875      311.52429     -2339.2941      6.8455048     -2332.4486     -10537.686    
     26450   147.16215      291.72732     -2338.8694      6.4104817     -2332.459      -9829.7692    
     26500   174.88616      346.68609     -2340.2494      7.6181581     -2332.6312     -10535.183    
     26550   145.9467       289.31786     -2339.1263      6.3575357     -2332.7687     -10163.429    
     26600   161.54872      320.24659     -2339.5621      7.0371704     -2332.5249     -9396.131     
     26650   157.26516      311.75505     -2339.3912      6.8505755     -2332.5406     -8371.2756    
     26700   159.81967      316.819       -2339.5132      6.9618518     -2332.5514     -11344.879    
     26750   148.20843      293.80142     -2339.671       6.4560585     -2333.2149     -12138.908    
     26800   173.91198      344.75492     -2340.1215      7.5757222     -2332.5458     -10680.955    
     26850   155.31616      307.89145     -2339.331       6.7656758     -2332.5653     -8066.1551    
     26900   162.548        322.22751     -2339.6556      7.0806996     -2332.5749     -9380.411     
     26950   157.31484      311.85353     -2339.9748      6.8527395     -2333.122      -12077.982    
     27000   156.86338      310.95859     -2339.744       6.833074      -2332.9109     -14680.912    
     27050   147.19649      291.79539     -2339.2785      6.4119775     -2332.8666     -9818.3662    
     27100   134.90357      267.42649     -2338.6345      5.8764897     -2332.758      -8290.2685    
     27150   136.68101      270.95        -2338.9577      5.9539163     -2333.0038     -8611.1389    
     27200   156.61341      310.46304     -2340.405       6.8221847     -2333.5828     -10662.686    
     27250   150.36837      298.08317     -2339.6145      6.5501466     -2333.0643     -10915.693    
     27300   146.75554      290.92127     -2339.3392      6.3927694     -2332.9464     -9237.6731    
     27350   125.98218      249.74114     -2338.5455      5.487868      -2333.0577     -10606.434    
     27400   151.25754      299.84582     -2339.5243      6.5888795     -2332.9354     -12202.324    
     27450   161.49026      320.1307      -2339.8854      7.0346239     -2332.8508     -12607.206    
     27500   164.82161      326.7346      -2340.3075      7.1797395     -2333.1278     -9947.9512    
     27550   144.91937      287.28135     -2339.4657      6.3127849     -2333.1529     -11171.458    
     27600   156.11467      309.47438     -2339.9256      6.8004596     -2333.1251     -9920.336     
     27650   149.93436      297.22282     -2339.6855      6.531241      -2333.1542     -9701.9659    
     27700   162.13555      321.40988     -2340.1891      7.0627329     -2333.1264     -9973.587     
     27750   163.57964      324.27257     -2340.0464      7.1256383     -2332.9208     -12691.334    
     27800   140.42885      278.37955     -2339.2765      6.1171748     -2333.1593     -10913.608    
     27850   134.45932      266.54583     -2339.0801      5.8571378     -2333.223      -12098.824    
     27900   128.86581      255.45752     -2338.7876      5.613481      -2333.1741     -10862.464    
     27950   149.71858      296.79507     -2339.6019      6.5218415     -2333.08       -10799.361    
     28000   159.01008      315.21409     -2339.988       6.9265853     -2333.0614     -11482.976    
     28050   148.68362      294.74341     -2339.5065      6.4767578     -2333.0297     -12688.702    
     28100   150.8497       299.03734     -2339.7116      6.5711137     -2333.1405     -13907.042    
     28150   132.39193      262.44752     -2338.864       5.7670809     -2333.0969     -12560.275    
     28200   151.43315      300.19395     -2339.7741      6.5965292     -2333.1776     -11935.382    
     28250   174.60568      346.13009     -2340.5297      7.6059404     -2332.9238     -10042.359    
     28300   167.28243      331.61282     -2340.0115      7.2869346     -2332.7246     -10371.807    
     28350   149.99166      297.33641     -2339.4066      6.533737      -2332.8728     -7136.9888    
     28400   167.01682      331.08628     -2340.1575      7.2753643     -2332.8822     -9255.3183    
     28450   162.8236       322.77385     -2339.997       7.092705      -2332.9043     -8866.6453    
     28500   154.78186      306.83228     -2339.5112      6.7424015     -2332.7688     -11739.333    
     28550   156.8876       311.0066      -2339.629       6.8341288     -2332.7949     -9160.28      
     28600   152.98348      303.26725     -2339.4728      6.6640627     -2332.8087     -10309.286    
     28650   150.52801      298.39965     -2339.5663      6.5571009     -2333.0092     -10561.212    
     28700   166.48519      330.0324      -2340.1194      7.252206      -2332.8672     -10510.031    
     28750   150.88683      299.11095     -2339.4277      6.5727311     -2332.855      -7745.636     
     28800   156.62029      310.47668     -2339.6953      6.8224844     -2332.8728     -11399.04     
     28850   163.99028      325.08661     -2340.1782      7.1435263     -2333.0347     -9929.6007    
     28900   164.20813      325.51847     -2340.1788      7.153016      -2333.0257     -9922.6645    
     28950   159.80108      316.78215     -2339.8547      6.9610421     -2332.8936     -8465.7527    
     29000   146.20371      289.82735     -2339.2877      6.3687313     -2332.919      -6462.5639    
     29050   172.77031      342.49172     -2340.624       7.5259901     -2333.098      -9183.4243    
     29100   170.19014      337.37692     -2340.3675      7.4135963     -2332.9539     -8885.8722    
     29150   152.92798      303.15724     -2339.5709      6.6616452     -2332.9093     -10375.528    
     29200   154.6917       306.65354     -2339.6635      6.7384738     -2332.925      -8555.1219    
     29250   173.12212      343.18915     -2340.6344      7.5413155     -2333.0931     -11055.096    
     29300   174.71832      346.35337     -2340.7165      7.6108468     -2333.1056     -8583.7552    
     29350   140.55527      278.63015     -2339.3442      6.1226815     -2333.2216     -10018.068    
     29400   138.70343      274.95915     -2339.3147      6.0420142     -2333.2727     -9547.4085    
     29450   145.52692      288.48572     -2339.5554      6.3392501     -2333.2162     -12315.071    
     29500   142.08569      281.66399     -2339.239       6.1893478     -2333.0497     -13697.923    
     29550   138.15542      273.8728      -2339.3046      6.0181424     -2333.2864     -11605.798    
     29600   153.33586      303.96579     -2339.7842      6.6794125     -2333.1048     -10215.781    
     29650   151.97626      301.27059     -2340.0441      6.6201877     -2333.4239     -11200.12     
     29700   173.77328      344.47997     -2340.4903      7.5696804     -2332.9206     -10470.532    
     29750   131.42082      260.52244     -2338.6624      5.7247786     -2332.9377     -8844.3392    
     29800   175.23176      347.37119     -2340.5981      7.6332125     -2332.9649     -9590.4981    
     29850   142.93718      283.35193     -2339.8747      6.226439      -2333.6483     -12514.01     
     29900   162.8275       322.78158     -2340.4982      7.092875      -2333.4054     -13735.809    
     29950   129.22856      256.17663     -2339.0615      5.6292827     -2333.4322     -14287.172    
     30000   137.70572      272.98134     -2339.5429      5.9985533     -2333.5444     -10447.749    
     30050   133.45126      264.54749     -2339.3648      5.813226      -2333.5516     -10421.151    
     30100   140.5062       278.53288     -2339.5473      6.1205442     -2333.4267     -10368.092    
     30150   158.01336      313.23826     -2340.0931      6.8831678     -2333.2099     -11975.405    
     30200   177.46469      351.79764     -2340.9222      7.7304804     -2333.1918     -12675.587    
     30250   158.02978      313.27081     -2340.0728      6.8838831     -2333.1889     -9259.075     
     30300   144.33758      286.12802     -2339.4914      6.2874415     -2333.2039     -11547.147    
     30350   165.81731      328.70844     -2340.4938      7.223113      -2333.2707     -8731.9124    
     30400   161.72431      320.59466     -2340.2694      7.044819      -2333.2246     -11813.99     
     30450   142.11818      281.72838     -2339.6213      6.1907628     -2333.4305     -8401.0263    
     30500   143.35475      284.17972     -2339.8266      6.244629      -2333.582      -12876.252    
     30550   156.87979      310.99111     -2340.2858      6.8337886     -2333.452      -11394.132    
     30600   156.21632      309.67587     -2340.3421      6.8048872     -2333.5372     -9811.5996    
     30650   154.22786      305.73405     -2339.9831      6.7182688     -2333.2648     -10055.953    
     30700   149.19692      295.76096     -2339.7868      6.4991178     -2333.2877     -5908.6891    
     30750   161.31734      319.78791     -2340.2891      7.0270914     -2333.2621     -9050.9633    
     30800   155.24625      307.75285     -2340.1375      6.7626303     -2333.3749     -10854.594    
     30850   151.89089      301.10136     -2339.9258      6.6164689     -2333.3094     -7512.2015    
     30900   137.76061      273.09016     -2339.3287      6.0009445     -2333.3278     -9337.2602    
     30950   155.42318      308.1036      -2340.1838      6.7703376     -2333.4134     -10133.25     
     31000   158.04233      313.29568     -2340.5643      6.8844296     -2333.6799     -10176.652    
     31050   136.31413      270.22272     -2339.6733      5.9379348     -2333.7353     -8537.6532    
     31100   140.38073      278.28415     -2339.9359      6.1150784     -2333.8209     -10342.299    
     31150   150.95033      299.23684     -2340.2228      6.5754975     -2333.6473     -8094.8754    
     31200   146.04587      289.51446     -2340.0641      6.3618558     -2333.7022     -9405.7747    
     31250   154.64276      306.55654     -2340.6197      6.7363422     -2333.8834     -10766.15     
     31300   149.95499      297.26371     -2340.2317      6.5321395     -2333.6995     -11307.496    
     31350   139.9827       277.49512     -2340.26        6.0977401     -2334.1623     -11045.607    
     31400   150.69645      298.73355     -2340.3375      6.5644381     -2333.773      -12178.41     
     31450   142.15469      281.80076     -2340.1273      6.1923532     -2333.9349     -11401.505    
     31500   141.24237      279.99222     -2340.1607      6.152612      -2334.0081     -13448.131    
     31550   151.79438      300.91004     -2340.5099      6.6122647     -2333.8976     -12526.519    
     31600   153.51751      304.32588     -2340.6429      6.6873253     -2333.9556     -9916.5653    
     31650   141.68131      280.86237     -2340.2588      6.1717327     -2334.087      -11024.964    
     31700   145.44405      288.32144     -2340.324       6.3356401     -2333.9884     -13197.433    
     31750   136.15546      269.90818     -2339.8273      5.9310229     -2333.8963     -12997.538    
     31800   144.1243       285.70523     -2340.3672      6.2781509     -2334.0891     -10432.433    
     31850   138.96443      275.47655     -2339.9345      6.0533835     -2333.8811     -9744.0474    
     31900   133.34122      264.32936     -2339.702       5.8084327     -2333.8936     -11687.842    
     31950   143.77688      285.01653     -2340.3721      6.2630172     -2334.1091     -12713.576    
     32000   145.50242      288.43715     -2340.1868      6.3381826     -2333.8486     -10451.334    
     32050   151.53709      300.4         -2340.172       6.601057      -2333.571      -8018.3284    
     32100   124.14535      246.09991     -2338.8729      5.4078546     -2333.4651     -9477.8404    
     32150   145.9415       289.30756     -2339.8311      6.3573094     -2333.4738     -9727.1516    
     32200   153.74216      304.77122     -2340.2755      6.6971113     -2333.5784     -10335.163    
     32250   144.25396      285.96227     -2340.0033      6.2837992     -2333.7195     -11520.345    
     32300   125.38338      248.55412     -2339.3501      5.461784      -2333.8883     -11312.831    
     32350   137.83839      273.24433     -2339.721       6.0043323     -2333.7167     -11712.343    
     32400   147.05372      291.51237     -2340.2332      6.4057584     -2333.8275     -10261.873    
     32450   146.44835      290.31233     -2340.0289      6.3793883     -2333.6496     -9218.3532    
     32500   166.36827      329.80063     -2340.5522      7.2471132     -2333.3051     -8234.4715    
     32550   141.28559      280.0779      -2339.4583      6.1544947     -2333.3038     -10501.037    
     32600   158.21895      313.6458      -2340.2018      6.8921232     -2333.3096     -7264.7869    
     32650   159.41169      316.01023     -2340.2663      6.9440798     -2333.3223     -10431.284    
     32700   143.3362       284.14294     -2339.9509      6.2438209     -2333.707      -10099.54     
     32750   142.72502      282.93137     -2339.8964      6.2171975     -2333.6792     -9748.6404    
     32800   134.30329      266.23653     -2339.492       5.8503413     -2333.6416     -9908.5451    
     32850   157.37043      311.96373     -2340.407       6.8551611     -2333.5519     -8569.8554    
     32900   153.41417      304.12103     -2340.2885      6.6828238     -2333.6057     -10649.024    
     32950   138.2242       274.00914     -2339.7219      6.0211385     -2333.7008     -11385.572    
     33000   136.74474      271.07634     -2339.6216      5.9566924     -2333.6649     -9292.3699    
     33050   147.15176      291.70673     -2339.9962      6.4100293     -2333.5861     -9379.4026    
     33100   144.72952      286.90499     -2339.8267      6.3045147     -2333.5222     -8976.8395    
     33150   156.67315      310.58147     -2340.0648      6.8247871     -2333.24       -9629.7619    
     33200   146.83479      291.07839     -2339.5241      6.3962219     -2333.1279     -10103.709    
     33250   149.64706      296.6533      -2339.6458      6.5187262     -2333.1271     -10655.051    
     33300   155.72879      308.70942     -2340.4445      6.7836501     -2333.6609     -9985.3648    
     33350   145.28058      287.99739     -2339.7921      6.3285193     -2333.4636     -9309.2957    
     33400   152.40939      302.12921     -2340.1862      6.6390552     -2333.5472     -10871.63     
     33450   135.77446      269.1529      -2339.0074      5.9144262     -2333.093      -12922.044    
     33500   135.91816      269.43777     -2338.7922      5.9206861     -2332.8715     -15758.439    
     33550   133.99649      265.62833     -2338.7361      5.8369766     -2332.8992     -13015.202    
     33600   148.30248      293.98787     -2339.7218      6.4601554     -2333.2617     -9997.5049    
     33650   148.60587      294.58928     -2339.8155      6.4733711     -2333.3421     -12619.557    
     33700   163.63828      324.38882     -2340.2687      7.1281929     -2333.1405     -10652.274    
     33750   177.56757      352.00159     -2340.7123      7.7349621     -2332.9773     -11792.14     
     33800   148.24314      293.87023     -2339.4334      6.4575705     -2332.9758     -8866.7006    
     33850   137.89506      273.35668     -2338.9837      6.0068012     -2332.9769     -10172.157    
     33900   160.84867      318.85884     -2340.6081      7.0066758     -2333.6014     -10218.666    
     33950   139.71753      276.96946     -2339.6966      6.086189      -2333.6104     -12353.436    
     34000   135.8778       269.35775     -2339.2274      5.9189278     -2333.3085     -12413.397    
     34050   140.72825      278.97305     -2339.5814      6.1302165     -2333.4511     -10894.363    
     34100   140.55543      278.63047     -2339.7422      6.1226885     -2333.6195     -9096.0554    
     34150   151.32074      299.97112     -2340.0296      6.5916328     -2333.438      -11321.211    
     34200   131.09348      259.87355     -2339.0812      5.7105197     -2333.3707     -10743.956    
     34250   135.69402      268.99344     -2339.3001      5.9109223     -2333.3892     -12030.401    
     34300   140.04833      277.62522     -2339.553       6.100599      -2333.4524     -10267.34     
     34350   136.30612      270.20683     -2339.3148      5.9375856     -2333.3772     -11928.145    
     34400   143.38778      284.24519     -2339.5878      6.2460678     -2333.3417     -9651.5284    
     34450   144.43259      286.31637     -2339.6362      6.2915802     -2333.3447     -12614.671    
     34500   139.74877      277.03138     -2339.4508      6.0875498     -2333.3632     -12435.441    
     34550   135.98328      269.56685     -2339.1707      5.9235225     -2333.2472     -9491.0446    
     34600   160.8135       318.78912     -2340.2924      7.0051437     -2333.2873     -11942.469    
[...]
    191150   157.60469      312.42813     -2343.712       6.8653658     -2336.8467     -9055.6148    
    191200   148.04609      293.4796      -2343.3088      6.4489866     -2336.8598     -10799.424    
    191250   171.20117      339.38114     -2344.3386      7.4576375     -2336.8809     -10821.447    
    191300   162.83721      322.80082     -2344.0137      7.0932978     -2336.9204     -10204.628    
    191350   146.6925       290.79631     -2343.3653      6.3900235     -2336.9753     -13506.678    
    191400   157.18868      311.60343     -2343.8563      6.8472438     -2337.0091     -9091.3508    
    191450   165.44394      327.96828     -2344.2013      7.2068486     -2336.9945     -10458.329    
    191500   161.66293      320.47298     -2344.0635      7.0421453     -2337.0214     -8475.744     
    191550   163.27674      323.67214     -2344.1753      7.1124442     -2337.0628     -11027.787    
    191600   163.48953      324.09394     -2344.1209      7.1217131     -2336.9992     -12847.99     
    191650   157.44727      312.11605     -2343.8805      6.8585082     -2337.022      -12003.771    
    191700   153.33862      303.97127     -2343.7222      6.679533      -2337.0427     -11753.327    
    191750   153.03161      303.36267     -2343.6696      6.6661594     -2337.0034     -12429.932    
    191800   148.67982      294.73587     -2343.5987      6.4765922     -2337.1221     -8212.6916    
    191850   157.77914      312.77395     -2343.9122      6.872965      -2337.0393     -9593.6137    
    191900   159.73221      316.64561     -2344.0195      6.9580417     -2337.0615     -9849.9327    
    191950   160.36245      317.89497     -2344.0685      6.9854954     -2337.083      -12069.908    
    192000   150.39669      298.13932     -2343.6475      6.5513805     -2337.0961     -10513.518    
    192050   157.13305      311.49317     -2343.9763      6.8448209     -2337.1315     -10182.522    
    192100   159.80054      316.78107     -2344.105       6.9610184     -2337.144      -10519.382    
    192150   147.59458      292.58456     -2343.5929      6.4293187     -2337.1636     -12801.434    
    192200   158.2952       313.79696     -2344.0776      6.895445      -2337.1821     -8541.5366    
    192250   159.46121      316.10841     -2344.1547      6.9462371     -2337.2085     -10350.802    
    192300   153.29018      303.87524     -2343.8957      6.6774228     -2337.2183     -10714.4      
    192350   154.36801      306.01189     -2343.931       6.724374      -2337.2066     -11858.825    
    192400   159.32821      315.84475     -2344.1735      6.9404436     -2337.2331     -10801.011    
    192450   157.91857      313.05034     -2344.1337      6.8790385     -2337.2547     -11726.427    
    192500   167.09701      331.24526     -2344.5841      7.2788577     -2337.3052     -11147.958    
    192550   161.16273      319.48141     -2344.3029      7.0203562     -2337.2825     -12749.767    
    192600   158.36211      313.9296      -2344.2311      6.8983595     -2337.3328     -10426.531    
    192650   155.67269      308.59822     -2343.966       6.7812067     -2337.1848     -11231.126    
    192700   154.30516      305.88728     -2343.9514      6.7216359     -2337.2298     -10702.693    
    192750   148.7185       294.81256     -2343.7488      6.4782774     -2337.2705     -11031.265    
    192800   169.23127      335.4761      -2344.6423      7.3718273     -2337.2705     -10663.771    
    192850   143.86686      285.19489     -2343.6168      6.2669365     -2337.3499     -8436.3687    
    192900   160.64173      318.4486      -2344.3173      6.9976611     -2337.3196     -12503.853    
    192950   152.70969      302.7245      -2343.95        6.6521362     -2337.2979     -11443.6      
    193000   153.82175      304.92899     -2343.9783      6.7005782     -2337.2777     -7413.1684    
    193050   153.93896      305.16134     -2343.8695      6.7056839     -2337.1638     -10264.384    
    193100   162.72877      322.58585     -2344.1062      7.088574      -2337.0176     -11998.167    
    193150   144.99674      287.43471     -2343.4688      6.316155      -2337.1526     -7590.8429    
    193200   166.11163      329.29188     -2344.4598      7.2359336     -2337.2238     -9761.8234    
    193250   162.06212      321.26432     -2344.3492      7.0595344     -2337.2896     -10541.897    
    193300   157.73829      312.69296     -2344.1539      6.8711854     -2337.2827     -11269.963    
    193350   147.59783      292.591       -2343.7532      6.4294603     -2337.3238     -9267.689     
    193400   142.93817      283.3539      -2343.5497      6.2264823     -2337.3232     -15279.377    
    193450   163.99567      325.09729     -2344.3306      7.1437609     -2337.1869     -9805.4638    
    193500   149.19337      295.75391     -2343.697       6.4989628     -2337.198      -14698.921    
    193550   163.97016      325.04672     -2344.2002      7.1426497     -2337.0576     -10395.635    
    193600   163.39535      323.90726     -2344.1906      7.1176109     -2337.073      -14666.478    
    193650   160.35689      317.88395     -2343.9256      6.9852533     -2336.9403     -17172.316    
    193700   159.76807      316.7167      -2344.0413      6.959604      -2337.0817     -11041.074    
    193750   154.02824      305.33834     -2343.8659      6.7095733     -2337.1563     -11492.634    
    193800   153.98528      305.25318     -2343.7934      6.7077019     -2337.0857     -13222.173    
    193850   159.82132      316.82226     -2344.1364      6.9619234     -2337.1745     -12051.086    
    193900   154.3763       306.02832     -2343.9604      6.724735      -2337.2357     -10020.506    
    193950   151.48219      300.29116     -2343.8301      6.5986654     -2337.2314     -12592.889    
    194000   151.15995      299.65236     -2343.8524      6.5846284     -2337.2678     -12476.636    
    194050   154.76528      306.7994      -2343.9961      6.741679      -2337.2544     -11874.328    
    194100   152.97415      303.24876     -2343.9856      6.6636565     -2337.322      -13121.721    
    194150   158.25917      313.72554     -2344.1278      6.8938754     -2337.2339     -13050.502    
    194200   134.72448      267.07146     -2343.2541      5.8686883     -2337.3854     -10609.891    
    194250   156.83376      310.89987     -2344.2794      6.8317835     -2337.4476     -9917.1464    
    194300   154.05563      305.39263     -2344.2424      6.7107662     -2337.5316     -10634.691    
    194350   155.72896      308.70977     -2344.3076      6.7836579     -2337.524      -10129.762    
    194400   146.90429      291.21615     -2343.9432      6.3992491     -2337.5439     -12279.323    
    194450   151.26066      299.85201     -2344.0082      6.5890153     -2337.4192     -10152.811    
    194500   153.73936      304.76568     -2344.0955      6.6969895     -2337.3985     -9502.8583    
    194550   142.6431       282.76897     -2343.6268      6.2136288     -2337.4132     -8663.8916    
    194600   161.83098      320.80612     -2344.4727      7.0494658     -2337.4232     -12361.411    
    194650   164.17308      325.449       -2344.656       7.1514893     -2337.5045     -9557.3294    
    194700   155.83868      308.92726     -2344.3083      6.7884371     -2337.5198     -9605.9698    
    194750   161.13551      319.42746     -2344.4746      7.0191707     -2337.4554     -8996.7025    
    194800   157.71635      312.64947     -2344.359       6.8702298     -2337.4888     -9469.6678    
    194850   161.27416      319.70231     -2344.5236      7.0252104     -2337.4984     -10424.469    
    194900   163.71932      324.54947     -2344.6403      7.131723      -2337.5086     -10061.935    
    194950   175.3842       347.67338     -2345.134       7.6398529     -2337.4941     -12130.476    
    195000   156.73069      310.69555     -2344.3665      6.8272939     -2337.5392     -8670.1718    
    195050   149.44723      296.25716     -2344.0628      6.5100215     -2337.5528     -8607.8928    
    195100   146.7967       291.00287     -2343.9382      6.3945624     -2337.5437     -9034.0547    
    195150   145.85523      289.13654     -2343.935       6.3535513     -2337.5815     -10208.228    
    195200   151.76984      300.8614      -2344.164       6.6111959     -2337.5528     -13329.274    
    195250   152.72266      302.75021     -2344.2644      6.6527011     -2337.6117     -8924.3425    
    195300   155.00481      307.27425     -2344.3584      6.7521133     -2337.6063     -9469.9107    
    195350   158.27778      313.76243     -2344.556       6.8946861     -2337.6613     -8646.5283    
    195400   164.55913      326.21428     -2344.837       7.1683058     -2337.6687     -9815.7662    
    195450   148.44564      294.27166     -2344.1304      6.4663915     -2337.664      -9166.7815    
    195500   154.97441      307.21397     -2344.4482      6.7507889     -2337.6974     -11821.61     
    195550   159.69035      316.56264     -2344.6823      6.9562185     -2337.7261     -11518.426    
    195600   139.01581      275.57839     -2343.8014      6.0556215     -2337.7458     -9774.2073    
    195650   155.67807      308.60888     -2344.3116      6.7814409     -2337.5302     -12605.848    
    195700   154.7749       306.81848     -2344.3068      6.7420983     -2337.5647     -9567.6652    
    195750   150.24918      297.8469      -2344.0958      6.5449546     -2337.5508     -9512.1627    
    195800   156.70725      310.64908     -2344.2546      6.8262727     -2337.4283     -10222.856    
    195850   137.18921      271.95744     -2343.4068      5.9760538     -2337.4308     -9851.0076    
    195900   146.19376      289.80762     -2344.0067      6.3682978     -2337.6384     -10417.396    
    195950   141.51355      280.52979     -2343.7642      6.1644247     -2337.5997     -13860.642    
    196000   147.56225      292.52047     -2343.962       6.4279105     -2337.534      -10939.792    
    196050   154.27527      305.82803     -2344.2946      6.7203338     -2337.5743     -10047.449    
    196100   154.59986      306.47149     -2344.2899      6.7344734     -2337.5554     -8937.4123    
    196150   152.98682      303.27387     -2344.2233      6.6642082     -2337.5591     -12396.477    
    196200   170.12889      337.25551     -2345.0942      7.4109283     -2337.6833     -12296.588    
    196250   147.15052      291.70427     -2343.953       6.4099751     -2337.543      -11747.892    
    196300   143.10968      283.6939      -2343.8658      6.2339535     -2337.6318     -8550.131     
    196350   164.74324      326.57924     -2344.7912      7.1763256     -2337.6149     -9952.5768    
    196400   164.93732      326.96398     -2344.809       7.18478       -2337.6242     -10318.514    
    196450   161.38937      319.93069     -2344.6984      7.0302289     -2337.6681     -12252.714    
    196500   148.23946      293.86292     -2344.0934      6.4574099     -2337.636      -12223.665    
    196550   159.85549      316.89001     -2344.6593      6.9634122     -2337.6959     -14838.343    
    196600   146.17576      289.77195     -2344.0973      6.367514      -2337.7297     -10715.803    
    196650   154.19775      305.67437     -2344.3625      6.7169572     -2337.6456     -11835.06     
    196700   156.96826      311.16648     -2344.272       6.8376422     -2337.4344     -12565.094    
    196750   158.6655       314.53101     -2344.3274      6.9115752     -2337.4158     -9773.6238    
    196800   162.18346      321.50486     -2344.5622      7.06482       -2337.4974     -9799.4655    
    196850   155.91032      309.06928     -2344.2517      6.7915578     -2337.4601     -13007.845    
    196900   143.42247      284.31395     -2343.6934      6.2475786     -2337.4458     -9288.7989    
    196950   147.81821      293.02787     -2343.7918      6.4390602     -2337.3528     -10569.229    
    197000   139.72899      276.99217     -2343.6785      6.0866882     -2337.5919     -11969.4      
    197050   146.95966      291.32591     -2344.0225      6.4016611     -2337.6208     -11299.301    
    197100   149.44402      296.25079     -2344.1855      6.5098814     -2337.6756     -10665.842    
    197150   143.60466      284.67512     -2343.6916      6.255515      -2337.4361     -11902.692    
    197200   151.47461      300.27615     -2344.0114      6.5983355     -2337.413      -12133.432    
    197250   151.33966      300.00862     -2344.073       6.5924569     -2337.4805     -13113.865    
    197300   155.4134       308.08422     -2344.2171      6.7699118     -2337.4472     -11116.608    
    197350   150.4166       298.17878     -2344.0098      6.5522476     -2337.4576     -14053.384    
    197400   159.62215      316.42745     -2344.4394      6.9532478     -2337.4862     -13113.033    
    197450   157.57716      312.37355     -2344.3981      6.8641666     -2337.534      -6660.385     
    197500   149.57006      296.50064     -2344.0533      6.5153717     -2337.5379     -10578.233    
    197550   145.74523      288.91848     -2343.8865      6.3487595     -2337.5378     -11354.934    
    197600   154.57896      306.43006     -2344.2764      6.7335629     -2337.5429     -11642.763    
    197650   142.08037      281.65345     -2343.7389      6.1891162     -2337.5498     -10808.731    
    197700   135.61573      268.83825     -2343.4915      5.9075121     -2337.5839     -12415.352    
    197750   153.35626      304.00624     -2344.2838      6.6803014     -2337.6035     -13231.802    
    197800   157.73111      312.67872     -2344.4993      6.8708725     -2337.6284     -10694.78     
    197850   147.02611      291.45764     -2344.0422      6.4045556     -2337.6376     -10767.852    
    197900   159.79711      316.77428     -2344.5952      6.9608692     -2337.6344     -12166.909    
    197950   151.06741      299.46893     -2344.1941      6.5805975     -2337.6135     -12399.822    
    198000   145.52077      288.47353     -2343.8381      6.3389822     -2337.4991     -11043.989    
    198050   144.54379      286.5368      -2343.7512      6.296424      -2337.4547     -12323.39     
    198100   149.82065      296.99741     -2343.8248      6.5262877     -2337.2985     -10812.098    
    198150   153.15406      303.60541     -2344.0183      6.6714934     -2337.3468     -12223.99     
    198200   151.0542       299.44273     -2343.829       6.5800218     -2337.249      -12775.743    
    198250   152.12909      301.57355     -2343.9529      6.6268449     -2337.3261     -13173.21     
    198300   151.61514      300.55471     -2344.0211      6.6044567     -2337.4166     -10299.094    
    198350   160.45374      318.07595     -2344.377       6.9894724     -2337.3875     -12998.446    
    198400   145.42048      288.27471     -2343.7938      6.3346132     -2337.4591     -12928.11     
    198450   154.93591      307.13766     -2344.2465      6.7491119     -2337.4974     -12096.865    
    198500   155.58298      308.42037     -2344.1995      6.7772985     -2337.4222     -12046.726    
    198550   150.72975      298.79955     -2344.0141      6.5658885     -2337.4482     -14083.558    
    198600   155.51969      308.29492     -2344.1672      6.7745419     -2337.3927     -10050.876    
    198650   145.49594      288.4243      -2343.7919      6.3379004     -2337.454      -9867.2978    
    198700   144.79292      287.03066     -2343.5383      6.3072762     -2337.231      -10558.499    
    198750   142.41607      282.31891     -2343.4322      6.2037392     -2337.2285     -14078.128    
    198800   156.36903      309.9786      -2344.0407      6.8115395     -2337.2292     -9006.883     
    198850   148.51547      294.41008     -2343.7114      6.4694333     -2337.242      -11156.582    
    198900   153.70625      304.70003     -2343.9562      6.6955469     -2337.2606     -11154.551    
    198950   154.49904      306.27163     -2343.9021      6.7300815     -2337.172      -10112.857    
    199000   160.89308      318.94687     -2344.2767      7.0086103     -2337.2681     -12110.272    
    199050   152.63317      302.57282     -2343.8996      6.648803      -2337.2508     -11099.506    
    199100   154.20844      305.69556     -2344.0538      6.7174229     -2337.3363     -10480.571    
    199150   150.92939      299.19532     -2343.8272      6.5745853     -2337.2526     -10158.577    
    199200   161.72948      320.6049      -2344.3685      7.0450442     -2337.3235     -13694.994    
    199250   149.79371      296.94401     -2343.6912      6.5251144     -2337.1661     -11335.572    
    199300   153.72134      304.72994     -2343.9659      6.6962043     -2337.2697     -9440.6756    
    199350   147.99249      293.37334     -2343.709       6.4466517     -2337.2623     -11623.644    
    199400   145.51919      288.47039     -2343.6362      6.3389131     -2337.2972     -12498.165    
    199450   153.05583      303.41068     -2343.8854      6.6672143     -2337.2182     -14569.243    
    199500   161.74548      320.63662     -2344.3263      7.0457411     -2337.2805     -14725.225    
    199550   163.34796      323.81331     -2344.4388      7.1155464     -2337.3232     -12195.484    
    199600   164.53159      326.15968     -2344.3895      7.1671061     -2337.2224     -11628.006    
    199650   157.82555      312.86595     -2344.2213      6.8749866     -2337.3463     -12754.094    
    199700   159.80711      316.79409     -2344.2842      6.9613044     -2337.3229     -11230.571    
    199750   170.59685      338.18316     -2344.8079      7.4313127     -2337.3765     -11275.061    
    199800   149.84576      297.04719     -2343.8194      6.5273816     -2337.292      -13734.242    
    199850   166.8724       330.8         -2344.4925      7.2690736     -2337.2234     -10000.441    
    199900   156.87564      310.98289     -2344.0975      6.833608      -2337.2639     -12453.832    
    199950   157.75831      312.73265     -2344.1663      6.8720576     -2337.2943     -11042.787    
    200000   150.16496      297.67995     -2343.8352      6.541286      -2337.294      -16125.656    
colvars: Saving collective variables state to "out.colvars.state".
colvars:   Writing TI PMF to file "out.metadynamics1.ti.pmf".
Loop time of 1041.75 on 4 procs for 200000 steps with 338 atoms

Performance: 8.294 ns/day, 2.894 hours/ns, 191.984 timesteps/s, 64.891 katom-step/s
137.5% CPU use with 4 MPI tasks x 1 OpenMP threads

MPI task timing breakdown:
Section |  min time  |  avg time  |  max time  |%varavg| %total
---------------------------------------------------------------
Pair    | 804.28     | 886.69     | 957.99     | 188.5 | 85.11
Neigh   | 0.13108    | 1.4227     | 2.369      |  72.0 |  0.14
Comm    | 13.114     | 71.569     | 165.58     | 672.5 |  6.87
Output  | 40.145     | 45.76      | 52.514     |  81.6 |  4.39
Modify  | 13.959     | 27.514     | 64.341     | 406.1 |  2.64
Other   |            | 8.799      |            |       |  0.84

Nlocal:           84.5 ave         122 max           8 min
Histogram: 1 0 0 0 0 0 0 1 0 2
Nghost:           1152 ave        1660 max         677 min
Histogram: 1 0 0 1 0 1 0 0 0 1
Neighs:              0 ave           0 max           0 min
Histogram: 4 0 0 0 0 0 0 0 0 0
FullNghs:      15290.5 ave       24776 max         807 min
Histogram: 1 0 0 0 0 1 0 0 1 1

Total # of neighbors = 61162
Ave neighs/atom = 180.95266
Neighbor list builds = 2496
Dangerous builds = 0
System init for write_data ...
Generated 0 of 6 mixed pair_coeff terms from geometric mixing rule

CITE-CITE-CITE-CITE-CITE-CITE-CITE-CITE-CITE-CITE-CITE-CITE-CITE

Your simulation uses code contributions which should be cited:
- Colvars module (Fiorin2013, plus other works listed for specific features)
The log file lists these citations in BibTeX format.

CITE-CITE-CITE-CITE-CITE-CITE-CITE-CITE-CITE-CITE-CITE-CITE-CITE

Total wall time: 0:17:49
