LAMMPS (2 Aug 2023)
OMP_NUM_THREADS environment is not set. Defaulting to 1 thread. (src/comm.cpp:98)
  using 1 OpenMP thread(s) per MPI task
Loaded 1 plugins from /work/home/baoergen22b/apprepo/deepmd/v2.2.9-dtk23.10/app/lib/deepmd_lmp
package gpu 4
# system
units        metal
dimension    3
atom_style   atomic
boundary     p p f

# 设置原子映射
atom_modify map array

# initial stucture
read_data POSCAR.lmp
Reading data file ...
  orthogonal box = (0 0 0) to (11.328 12.015 32)
  1 by 1 by 4 MPI processor grid
  reading atoms ...
  338 atoms
  read_data CPU = 0.030 seconds
mass      1 55.845
mass      2 15.999
mass      3 1.008
mass      4  35.450

# potential
pair_style deepmd graph-compress.pb
Summary of lammps deepmd module ...
  >>> Info of deepmd-kit:
  installed to:       /work/home/wys974137909/shangcheng/deepmd-kit/20240715/deepmd-kit_v2.2.9/install
  source:             v2.2.9
  source branch:      HEAD
  source commit:      be43748
  source commit at:   2024-02-04 13:44:12 +0800
  support model ver.: 1.1 
  build variant:      rocm
  build with tf inc:  /work/home/wys974137909/shangcheng/miniconda3/envs/deepmd-kit-v2.2.9/lib/python3.8/site-packages/tensorflow/include;/work/home/wys974137909/shangcheng/miniconda3/envs/deepmd-kit-v2.2.9/lib/python3.8/site-packages/tensorflow/include
  build with tf lib:  /work/home/wys974137909/shangcheng/miniconda3/envs/deepmd-kit-v2.2.9/lib/python3.8/site-packages/tensorflow/lib/libtensorflow_cc.so
  set tf intra_op_parallelism_threads: 0
  set tf inter_op_parallelism_threads: 0
  >>> Info of lammps module:
  use deepmd-kit at:  /work/home/wys974137909/shangcheng/deepmd-kit/20240715/deepmd-kit_v2.2.9/install
  source:             v2.2.9
  source branch:      HEAD
  source commit:      be43748
  source commit at:   2024-02-04 13:44:12 +0800
  build float prec:   double
  build with tf inc:  /work/home/wys974137909/shangcheng/miniconda3/envs/deepmd-kit-v2.2.9/lib/python3.8/site-packages/tensorflow/include;/work/home/wys974137909/shangcheng/miniconda3/envs/deepmd-kit-v2.2.9/lib/python3.8/site-packages/tensorflow/include
  build with tf lib:  /work/home/wys974137909/shangcheng/miniconda3/envs/deepmd-kit-v2.2.9/lib/python3.8/site-packages/tensorflow/lib/libtensorflow_cc.so
pair_coeff * *

# 固定原子受力、速度为 0
group fixed id 1:146  148:168
167 atoms in group fixed
group mobile subtract all fixed
171 atoms in group mobile
fix freeze_fixed fixed setforce 0.0 0.0 0.0
velocity fixed set 0 0 0

# 在z=27处添加硬性反射墙
fix wall1 mobile wall/reflect zhi 27

# 计算mobile组的温度
compute mTemp mobile temp
thermo 50
thermo_style custom step temp c_mTemp pe ke etotal press
velocity mobile  create 298.15 12345 mom yes rot yes

fix ensemble mobile  nvt temp 298.15 298.15 1
fix meta  all colvars pmf.in tstat ensemble
timestep 0.0005
dump trace all custom 1 md.lammpstrj id type x y z
run 200000

CITE-CITE-CITE-CITE-CITE-CITE-CITE-CITE-CITE-CITE-CITE-CITE-CITE

Your simulation uses code contributions which should be cited:

- GPU package (short-range, long-range and three-body potentials): doi:10.1016/j.cpc.2010.12.021, doi:10.1016/j.cpc.2011.10.012, doi:10.1016/j.cpc.2013.08.002, doi:10.1016/j.commatsci.2014.10.068, doi:10.1016/j.cpc.2016.10.020, doi:10.3233/APC200086

@Article{Brown11,
 author = {W. M. Brown and P. Wang and S. J. Plimpton and A. N. Tharrington},
 title = {Implementing Molecular Dynamics on Hybrid High Performance Computers---Short Range Forces},
 journal = {Comput.\ Phys.\ Commun.},
 year =    2011,
 volume =  182,
 pages =   {898--911},
 doi =     {10.1016/j.cpc.2010.12.021}
}

@Article{Brown12,
 author = {W. M. Brown and A. Kohlmeyer and S. J. Plimpton and A. N. Tharrington},
 title = {Implementing Molecular Dynamics on Hybrid High Performance Computers - Particle-Particle Particle-Mesh},
 journal = {Comput.\ Phys.\ Commun.},
 year =    2012,
 volume =  183,
 doi =     {10.1016/j.cpc.2011.10.012},
 pages =   {449--459}
}

@Article{Brown13,
 author = {W. M. Brown and Y. Masako},
 title = {Implementing Molecular Dynamics on Hybrid High Performance Computers---Three-Body Potentials},
 journal = {Comput.\ Phys.\ Commun.},
 year =    2013,
 volume =  184,
 pages =   {2785--2793},
 doi =     {10.1016/j.cpc.2013.08.002},
}

@Article{Trung15,
 author = {T. D. Nguyen and S. J. Plimpton},
 title = {Accelerating Dissipative Particle Dynamics Simulations for Soft Matter Systems},
 journal = {Comput.\ Mater.\ Sci.},
 year =    2015,
 doi =     {10.1016/j.commatsci.2014.10.068},
 volume =  100,
 pages =   {173--180}
}

@Article{Trung17,
 author = {T. D. Nguyen},
 title = {{GPU}-Accelerated {T}ersoff Potentials for Massively Parallel
    Molecular Dynamics Simulations},
 journal = {Comput.\ Phys.\ Commun.},
 year =    2017,
 doi =     {10.1016/j.cpc.2016.10.020},
 volume =  212,
 pages =   {113--122}
}

@inproceedings{Nikolskiy19,
 author = {V. Nikolskiy and V. Stegailov},
 title = {{GPU} Acceleration of Four-Site Water Models in {LAMMPS}},
 booktitle = {Proceedings of the International Conference on Parallel
    Computing (ParCo 2019), Prague, Czech Republic},
 doi =     {10.3233/APC200086},
 year =    2019
}

- USER-DEEPMD package:

@article{Wang_ComputPhysCommun_2018_v228_p178,
  author = {Wang, Han and Zhang, Linfeng and Han, Jiequn and E, Weinan},
  doi = {10.1016/j.cpc.2018.03.016},
  url = {https://doi.org/10.1016/j.cpc.2018.03.016},
  year = 2018,
  month = {jul},
  publisher = {Elsevier {BV}},
  volume = 228,
  journal = {Comput. Phys. Commun.},
  title = {{DeePMD-kit: A deep learning package for many-body potential energy representation and molecular dynamics}},
  pages = {178--184}
}
@misc{Zeng_JChemPhys_2023_v159_p054801,
  title  = {{DeePMD-kit v2: A software package for deep potential models}},
  author =   {Jinzhe Zeng and Duo Zhang and Denghui Lu and Pinghui Mo and Zeyu Li
         and Yixiao Chen and Mari{\'a}n Rynik and Li'ang Huang and Ziyao Li and 
         Shaochen Shi and Yingze Wang and Haotian Ye and Ping Tuo and Jiabin
         Yang and Ye Ding and Yifan Li and Davide Tisi and Qiyu Zeng and Han 
         Bao and Yu Xia and Jiameng Huang and Koki Muraoka and Yibo Wang and 
         Junhan Chang and Fengbo Yuan and Sigbj{\o}rn L{\o}land Bore and Chun
         Cai and Yinnian Lin and Bo Wang and Jiayan Xu and Jia-Xin Zhu and 
         Chenxing Luo and Yuzhi Zhang and Rhys E A Goodall and Wenshuo Liang
         and Anurag Kumar Singh and Sikai Yao and Jingchao Zhang and Renata
         Wentzcovitch and Jiequn Han and Jie Liu and Weile Jia and Darrin M
         York and Weinan E and Roberto Car and Linfeng Zhang and Han Wang},
  journal =  {J. Chem. Phys.},
  volume =   159,
  issue =    5,  
  year =    2023,
  pages  =   054801,
  doi =      {10.1063/5.0155600},
}

CITE-CITE-CITE-CITE-CITE-CITE-CITE-CITE-CITE-CITE-CITE-CITE-CITE

Generated 0 of 6 mixed pair_coeff terms from geometric mixing rule
Neighbor list info ...
  update: every = 1 steps, delay = 0 steps, check = yes
  max neighbors/atom: 2000, page size: 100000
  master list distance cutoff = 8
  ghost atom cutoff = 8
  binsize = 4, bins = 3 4 8
  1 neighbor lists, perpetual/occasional/extra = 1 0 0
  (1) pair deepmd, perpetual
      attributes: full, newton on
      pair build: full/bin/atomonly
      stencil: full/bin/3d
      bin: standard
colvars: Creating proxy instance
colvars: ----------------------------------------------------------------------
colvars: Initializing the collective variables module, version 2023-05-01.
colvars: Please cite Fiorin et al, Mol Phys 2013:
colvars:   https://doi.org/10.1080/00268976.2013.813594
colvars: as well as all other papers listed below for individual features used.
colvars: This version was built with the C++11 standard or higher.
colvars: Using LAMMPS interface, version "2023-04-12".
colvars: ----------------------------------------------------------------------
colvars: Reading new configuration from file "pmf.in":
colvars: # units = "" [default]
colvars: # smp = on [default]
colvars: # colvarsTrajFrequency = 100 [default]
colvars: # colvarsRestartFrequency = 0 [default]
colvars: # scriptedColvarForces = off [default]
colvars: # scriptingAfterBiases = off [default]
colvars: ----------------------------------------------------------------------
colvars:   Initializing a new collective variable.
colvars:   # name = "d"
colvars:   Initializing a new "distanceZ" component.
colvars:     # name = "" [default]
colvars:     # componentCoeff = 1 [default]
colvars:     # componentExp = 1 [default]
colvars:     # period = 0 [default]
colvars:     # wrapAround = 0 [default]
colvars:     # forceNoPBC = off [default]
colvars:     # scalable = on [default]
colvars:       Initializing atom group "main".
colvars:       # name = "" [default]
colvars:       # centerToOrigin = off [default]
colvars:       # centerToReference = off [default]
colvars:       # rotateToReference = off [default]
colvars:       # atomsOfGroup = "" [default]
colvars:       # indexGroup = "" [default]
colvars:       # psfSegID =  [default]
colvars:       # atomsFile = "" [default]
colvars:       # dummyAtom = ( 0 , 0 , 0 ) [default]
colvars:       # enableFitGradients = on [default]
colvars:       # printAtomIDs = off [default]
colvars:       Atom group "main" defined with 1 atoms requested.
colvars:       Initializing atom group "ref".
colvars:       # name = "" [default]
colvars:       # centerToOrigin = off [default]
colvars:       # centerToReference = off [default]
colvars:       # rotateToReference = off [default]
colvars:       # atomsOfGroup = "" [default]
colvars:       # indexGroup = "" [default]
colvars:       # psfSegID =  [default]
colvars:       # atomsFile = "" [default]
colvars:       # dummyAtom = ( 0 , 0 , 0 ) [default]
colvars:       # enableFitGradients = on [default]
colvars:       # printAtomIDs = off [default]
colvars:       Atom group "ref" defined with 22 atoms requested.
colvars:     # axis = ( 0 , 0 , 1 ) [default]
colvars:     # oneSiteSystemForce = off [default]
colvars:     # oneSiteTotalForce = off [default]
colvars:   All components initialized.
colvars:   # timeStepFactor = 1 [default]
colvars:   # width = 0.05
colvars:   # lowerBoundary = -0.2
colvars:   # upperBoundary = 6
colvars:   # hardLowerBoundary = on
colvars:   # hardUpperBoundary = off [default]
colvars:   # expandBoundaries = off [default]
colvars:   # extendedLagrangian = off [default]
colvars:   # outputValue = on [default]
colvars:   # outputVelocity = off [default]
colvars:   # outputTotalForce = on
colvars:   # outputAppliedForce = on
colvars:   # subtractAppliedForce = off [default]
colvars:   # runAve = off [default]
colvars:   # corrFunc = off [default]
colvars: ----------------------------------------------------------------------
colvars: Collective variables initialized, 1 in total.
colvars: ----------------------------------------------------------------------
colvars:   Initializing a new "metadynamics" instance.
colvars:   # name = "metadynamics1" [default]
colvars:   # colvars = { d }
colvars:   # stepZeroData = off [default]
colvars:   # outputEnergy = off [default]
colvars:   # outputFreq = 0 [default]
colvars:   # timeStepFactor = 1 [default]
colvars:   # writeTISamples = on
colvars:   # writeTIPMF = on
colvars:   # hillWeight = 0.1
colvars:   # newHillFrequency = 300
colvars:   # gaussianSigmas =  [default]
colvars:   # hillWidth = 1
colvars:   Half-widths of the Gaussian hills (sigma's):
colvars:   d: 0.025
colvars:   # multipleReplicas = off [default]
colvars:   # useGrids = on [default]
colvars:   # gridsUpdateFrequency = 300 [default]
colvars:   # rebinGrids = off [default]
colvars:   # writeFreeEnergyFile = on [default]
colvars:   # keepHills = off [default]
colvars:   # keepFreeEnergyFiles = off [default]
colvars:   # writeHillsTrajectory = off [default]
colvars:   # wellTempered = off [default]
colvars:   # biasTemperature = 800
colvars:   # ebMeta = off [default]
colvars: ----------------------------------------------------------------------
colvars: Collective variables biases initialized, 1 in total.
colvars: ----------------------------------------------------------------------
colvars: Collective variables module (re)initialized.
colvars: ----------------------------------------------------------------------
colvars: Re-initialized atom group for variable "d":0/0. 1 atoms: total mass = 55.845, total charge = 2.47033e-323.
colvars: Re-initialized atom group for variable "d":0/1. 22 atoms: total mass = 1228.59, total charge = 2.27826e-76.
colvars: The restart output state file will be "rest.colvars.state".
colvars: The final output state file will be "out.colvars.state".
Per MPI rank memory allocation (min/avg/max) = 3.132 | 3.155 | 3.171 Mbytes
   Step          Temp         c_mTemp         PotEng         KinEng         TotEng         Press     
         0   150.40208      298.15        -2338.2108      6.5516151     -2331.6592     -12178.041    
        50   163.99746      325.10084     -2338.805       7.1438389     -2331.6612     -11862.191    
       100   155.95433      309.15652     -2338.4536      6.7934748     -2331.6601     -10815.969    
       150   148.13808      293.66197     -2338.1166      6.452994      -2331.6637     -8199.0896    
       200   152.82226      302.94765     -2338.327       6.6570398     -2331.67       -10065.284    
       250   166.4435       329.94976     -2338.927       7.2503901     -2331.6766     -12810.32     
       300   169.60033      336.2077      -2339.0652      7.3879036     -2331.6773     -10265.85     
       350   156.74752      310.7289      -2338.5155      6.8280266     -2331.6874     -11825.307    
       400   165.90223      328.87677     -2338.8549      7.226812      -2331.6281     -12401.817    
       450   157.43286      312.0875      -2338.4953      6.8578809     -2331.6374     -12601.966    
       500   168.48503      333.99679     -2338.9806      7.3393205     -2331.6413     -11743.409    
       550   153.02444      303.34846     -2338.3045      6.6658471     -2331.6386     -10500.657    
       600   158.60419      314.40949     -2338.5676      6.9089048     -2331.6587     -11950.401    
       650   155.95764      309.16309     -2338.3494      6.7936191     -2331.5558     -12959.509    
       700   159.30731      315.80332     -2338.489       6.9395332     -2331.5495     -12198.988    
       750   151.80395      300.929       -2338.1739      6.6126814     -2331.5612     -8326.2732    
       800   151.88153      301.08279     -2338.1766      6.6160608     -2331.5605     -11346.124    
       850   160.12744      317.42909     -2338.5977      6.9752582     -2331.6225     -11257.518    
       900   145.06009      287.56029     -2337.9811      6.3189144     -2331.6621     -9567.3406    
       950   161.16596      319.48782     -2338.5255      7.020497      -2331.505      -12251.316    
      1000   148.47128      294.32248     -2337.981       6.4675083     -2331.5135     -13455.333    
      1050   154.34528      305.96683     -2338.252       6.7233839     -2331.5286     -10292.289    
      1100   166.78118      330.61916     -2338.8048      7.2650996     -2331.5397     -9496.5082    
      1150   169.46582      335.94107     -2338.9969      7.3820446     -2331.6149     -10948.066    
      1200   160.27244      317.71654     -2338.5383      6.9815747     -2331.5567     -11696.515    
      1250   159.74894      316.67877     -2338.4624      6.9587705     -2331.5036     -9443.7664    
      1300   146.90057      291.20878     -2337.9051      6.3990871     -2331.506      -10939.927    
      1350   155.24493      307.75025     -2338.3341      6.7625731     -2331.5715     -11746.233    
      1400   153.66511      304.61849     -2338.247       6.6937552     -2331.5533     -11338.319    
      1450   166.5003       330.06235     -2338.8117      7.2528643     -2331.5588     -12342.722    
      1500   156.53362      310.30488     -2338.4096      6.8187091     -2331.5909     -11225.52     
      1550   156.58397      310.40469     -2338.3696      6.8209024     -2331.5487     -12308.673    
      1600   182.88044      362.53358     -2339.6328      7.9663944     -2331.6664     -12193.269    
      1650   165.87573      328.82424     -2338.7731      7.2256577     -2331.5475     -13096.522    
      1700   153.40367      304.10022     -2338.2364      6.6823666     -2331.554      -9938.2173    
      1750   156.88374      310.99895     -2338.4216      6.8339608     -2331.5876     -13380.752    
      1800   142.66737      282.81708     -2337.9258      6.2146861     -2331.7111     -11949.916    
      1850   160.26838      317.7085      -2338.5716      6.9813979     -2331.5902     -9426.9061    
      1900   139.59187      276.72036     -2337.6072      6.0807154     -2331.5264     -12736.677    
      1950   148.36664      294.11505     -2338.0192      6.4629503     -2331.5562     -12710.698    
      2000   153.93824      305.15993     -2338.3755      6.7056528     -2331.6698     -10934.659    
      2050   150.39656      298.13907     -2338.3458      6.5513749     -2331.7944     -10646.819    
      2100   165.97261      329.0163      -2338.8929      7.229878      -2331.663      -11907.485    
      2150   149.07042      295.51019     -2338.1049      6.4936073     -2331.6113     -12401.907    
      2200   165.07534      327.23759     -2338.8254      7.1907922     -2331.6346     -12785.815    
      2250   150.96382      299.26358     -2338.2533      6.576085      -2331.6772     -13149.309    
      2300   161.33717      319.82721     -2338.8211      7.027955      -2331.7932     -11978.612    
      2350   156.95129      311.13284     -2338.5794      6.836903      -2331.7425     -11383.145    
      2400   158.77969      314.75738     -2338.6119      6.9165494     -2331.6954     -12712.126    
      2450   158.37139      313.948       -2338.6246      6.8987638     -2331.7258     -11538.637    
      2500   163.33216      323.78199     -2338.9003      7.1148582     -2331.7855     -10946.371    
      2550   153.28465      303.86427     -2338.6603      6.6771818     -2331.9831     -10366.971    
      2600   155.33029      307.91946     -2338.7686      6.7662914     -2332.0023     -10781.029    
      2650   159.74724      316.67541     -2338.899       6.9586966     -2331.9403     -11175.621    
      2700   155.72892      308.70968     -2338.6713      6.7836558     -2331.8876     -8484.2107    
      2750   164.38221      325.86356     -2339.0768      7.1605991     -2331.9162     -11088.297    
      2800   151.04752      299.4295      -2338.572       6.579731      -2331.9923     -12077.869    
      2850   148.31652      294.01568     -2338.5232      6.4607666     -2332.0624     -9108.7016    
      2900   157.93556      313.08403     -2338.8452      6.8797787     -2331.9655     -8899.2538    
      2950   167.54827      332.13981     -2339.357       7.2985147     -2332.0585     -13301.755    
      3000   168.6791       334.3815      -2339.4242      7.3477743     -2332.0764     -9076.9643    
      3050   160.43077      318.03041     -2339.1274      6.9884717     -2332.1389     -10753.699    
      3100   143.57356      284.61346     -2338.4734      6.2541601     -2332.2193     -9915.5176    
      3150   151.96041      301.23916     -2338.918       6.6194969     -2332.2986     -11032.67     
      3200   160.67323      318.51106     -2339.1546      6.9990335     -2332.1556     -10845.17     
      3250   139.78475      277.10271     -2338.3061      6.0891171     -2332.217      -10247.266    
      3300   141.08783      279.68588     -2338.3889      6.1458803     -2332.243      -11210.428    
      3350   153.2386       303.77298     -2338.969       6.6751758     -2332.2938     -12381.077    
      3400   144.92789      287.29824     -2338.6256      6.313156      -2332.3124     -13268.001    
      3450   161.59314      320.33463     -2339.3068      7.0391052     -2332.2677     -8436.8617    
      3500   147.89668      293.18341     -2338.8024      6.4424782     -2332.3599     -12536.814    
      3550   149.42188      296.2069      -2338.8779      6.508917      -2332.369      -8446.2792    
      3600   140.48855      278.49789     -2338.5194      6.1197752     -2332.3996     -10805.444    
      3650   164.99881      327.08588     -2339.5424      7.1874587     -2332.355      -11284.513    
      3700   162.79637      322.71986     -2339.4448      7.0915188     -2332.3533     -10217.722    
      3750   153.71987      304.72703     -2339.0501      6.6961402     -2332.354      -10632.595    
      3800   157.85018      312.91476     -2339.2442      6.8760592     -2332.3681     -12365.473    
      3850   166.32018      329.7053      -2339.6329      7.2450183     -2332.3878     -9711.4881    
      3900   147.47581      292.3491      -2338.9931      6.4241449     -2332.5689     -12490.038    
      3950   144.99877      287.43874     -2338.7529      6.3162435     -2332.4366     -10797.037    
      4000   145.38872      288.21175     -2338.7332      6.3332297     -2332.4        -12279.563    
      4050   133.67665      264.9943      -2338.2284      5.8230442     -2332.4054     -10709.544    
      4100   149.28324      295.93207     -2338.8222      6.5028777     -2332.3193     -10854.959    
      4150   146.23093      289.8813      -2338.8515      6.3699169     -2332.4816     -12855.726    
      4200   151.65256      300.6289      -2338.9751      6.606087      -2332.369      -13515.7      
      4250   141.74006      280.97882     -2338.4929      6.1742917     -2332.3186     -10218.618    
      4300   154.91366      307.09355     -2339.0869      6.7481426     -2332.3387     -12957.02     
      4350   145.6043       288.63911     -2338.7227      6.3426205     -2332.3801     -12095.812    
      4400   158.22058      313.64903     -2339.2695      6.8921942     -2332.3773     -9451.0875    
      4450   152.26632      301.84559     -2339.0759      6.6328229     -2332.4431     -12005.744    
      4500   150.56576      298.47449     -2339.0094      6.5587454     -2332.4507     -10367.901    
      4550   157.92285      313.05883     -2339.3559      6.879225      -2332.4767     -12225.844    
      4600   153.53814      304.36679     -2339.3182      6.6882242     -2332.63       -9666.3027    
      4650   147.54562      292.4875      -2338.8247      6.427186      -2332.3975     -10965.702    
      4700   128.29779      254.3315      -2338.0032      5.5887374     -2332.4145     -12762.568    
      4750   132.96714      263.5878      -2338.1927      5.7921375     -2332.4005     -13509.483    
      4800   141.5982       280.69761     -2338.6281      6.1681124     -2332.46       -11821.932    
      4850   155.66386      308.5807      -2339.2282      6.7808217     -2332.4474     -11953.019    
      4900   160.21444      317.60157     -2339.3601      6.9790483     -2332.3811     -10501.464    
      4950   146.86371      291.13571     -2338.7823      6.3974816     -2332.3848     -10010.887    
      5000   136.37951      270.35233     -2338.3285      5.9407828     -2332.3877     -9324.1075    
      5050   159.62196      316.42706     -2339.3289      6.9532394     -2332.3756     -12055.391    
      5100   150.16297      297.676       -2339.0863      6.5411994     -2332.5451     -11253.701    
      5150   153.47087      304.23343     -2339.0901      6.6852938     -2332.4048     -8334.1704    
      5200   144.8887       287.22054     -2338.5689      6.3114487     -2332.2574     -14431.642    
      5250   126.46109      250.69052     -2337.776       5.5087298     -2332.2672     -5871.2624    
      5300   143.01156      283.49938     -2338.6409      6.229679      -2332.4112     -12452.996    
      5350   154.36272      306.00139     -2339.0323      6.7241433     -2332.3082     -12238.51     
      5400   160.09275      317.36032     -2339.2882      6.9737471     -2332.3145     -9289.2599    
      5450   160.07371      317.32259     -2339.2281      6.972918      -2332.2551     -9581.179     
      5500   156.05894      309.36391     -2339.0594      6.798032      -2332.2613     -11307.176    
      5550   178.95854      354.75898     -2340.1473      7.7955536     -2332.3518     -8408.2913    
      5600   153.21394      303.7241      -2338.8468      6.6741016     -2332.1727     -11143.415    
      5650   147.19859      291.79956     -2338.5624      6.412069      -2332.1504     -11467.854    
      5700   147.44545      292.28892     -2338.5823      6.4228224     -2332.1595     -11156.283    
      5750   141.99756      281.48929     -2338.2608      6.1855089     -2332.0752     -10530.681    
      5800   150.22868      297.80627     -2338.5949      6.5440619     -2332.0508     -10348.822    
      5850   157.24002      311.70522     -2338.9961      6.8494806     -2332.1466     -12348.985    
      5900   144.0026       285.46398     -2338.3669      6.2728497     -2332.0941     -11949.969    
      5950   148.6275       294.63217     -2338.5438      6.4743135     -2332.0694     -13282.335    
      6000   144.84141      287.1268      -2338.4576      6.3093887     -2332.1482     -14322.313    
      6050   141.29129      280.0892      -2338.1694      6.1547429     -2332.0147     -14551.893    
      6100   137.88826      273.3432      -2338.0113      6.0065049     -2332.0048     -13975.728    
      6150   133.69889      265.03839     -2337.9181      5.8240132     -2332.0941     -12059.191    
      6200   142.86282      283.20454     -2338.257       6.2232001     -2332.0338     -13332.849    
      6250   143.45906      284.38649     -2338.2539      6.2491726     -2332.0047     -11788.942    
      6300   139.08078      275.70719     -2338.0975      6.0584517     -2332.0391     -16396.412    
      6350   166.5384       330.13788     -2339.1974      7.254524      -2331.9429     -11302.814    
      6400   159.32545      315.83928     -2339.0736      6.9403232     -2332.1332     -12464.436    
      6450   149.71366      296.78532     -2338.4724      6.5216273     -2331.9508     -8808.877     
      6500   153.15636      303.60996     -2338.6253      6.6715935     -2331.9537     -13852.196    
      6550   162.57587      322.28276     -2339.0339      7.0819137     -2331.952      -8712.1387    
      6600   162.71645      322.56144     -2339.2057      7.0880376     -2332.1177     -12711.497    
      6650   164.31105      325.72249     -2339.073       7.1574992     -2331.9155     -12886.861    
      6700   159.20099      315.59255     -2338.9679      6.9349015     -2332.033      -12323.32     
      6750   141.98041      281.45528     -2338.0513      6.1847616     -2331.8666     -11836.518    
      6800   159.40816      316.00323     -2338.8234      6.943926      -2331.8795     -14001.191    
      6850   160.99503      319.14896     -2338.9154      7.013051      -2331.9023     -12056.579    
      6900   149.07864      295.52647     -2338.4556      6.4939651     -2331.9617     -14358.814    
      6950   151.47117      300.26933     -2338.4262      6.5981857     -2331.828      -12591.926    
      7000   132.94875      263.55135     -2337.6196      5.7913367     -2331.8283     -10636.488    
      7050   144.22299      285.90088     -2338.1219      6.2824501     -2331.8394     -13385.577    
      7100   150.14401      297.63841     -2338.5078      6.5403734     -2331.9674     -10624.053    
      7150   152.25606      301.82525     -2338.6509      6.6323758     -2332.0185     -11969.654    
      7200   154.27877      305.83497     -2338.5933      6.7204863     -2331.8728     -10251.918    
      7250   152.18082      301.67609     -2338.4106      6.6290982     -2331.7815     -12131.151    
      7300   157.24114      311.70743     -2338.6406      6.8495292     -2331.7911     -12417.957    
      7350   142.28132      282.0518      -2338.0472      6.1978697     -2331.8493     -10520.689    
      7400   159.67203      316.52632     -2338.8159      6.9554206     -2331.8604     -10540.179    
      7450   144.93773      287.31773     -2338.1072      6.3135844     -2331.7936     -10901.186    
      7500   163.03851      323.19988     -2338.933       7.1020667     -2331.831      -11523.191    
      7550   143.19302      283.85911     -2338.0519      6.2375838     -2331.8143     -12412.96     
      7600   151.55153      300.42861     -2338.503       6.6016858     -2331.9013     -13608.893    
      7650   152.32392      301.95978     -2338.5014      6.635332      -2331.866      -12890.214    
      7700   159.9192       317.01629     -2338.8037      6.9661872     -2331.8375     -10941.87     
      7750   147.56535      292.5266      -2338.1847      6.4280452     -2331.7566     -14396.784    
      7800   164.71374      326.52076     -2338.9652      7.1750405     -2331.7901     -9315.7982    
      7850   154.2884       305.85407     -2338.5177      6.7209061     -2331.7968     -12091.572    
      7900   146.85727      291.12295     -2338.2284      6.3972011     -2331.8312     -10786.056    
      7950   165.37023      327.82217     -2338.9796      7.203638      -2331.7759     -11560.778    
      8000   177.1578       351.18928     -2339.4267      7.7171122     -2331.7096     -12349.767    
      8050   156.54089      310.31929     -2338.6421      6.8190258     -2331.823      -9995.5962    
      8100   158.91387      315.02337     -2338.7636      6.9223943     -2331.8412     -10661.582    
      8150   160.5186       318.20452     -2338.8917      6.9922977     -2331.8994     -11418.862    
      8200   144.49786      286.44576     -2338.3924      6.2944234     -2332.098      -13789.099    
      8250   160.70519      318.57441     -2338.8071      7.0004257     -2331.8067     -11249.734    
      8300   161.86526      320.87408     -2338.9617      7.0509591     -2331.9107     -10116.178    
      8350   156.77018      310.77382     -2338.7411      6.8290137     -2331.9121     -11547.101    
      8400   157.88772      312.98919     -2338.7973      6.8776947     -2331.9197     -9691.2704    
      8450   151.55992      300.44526     -2338.673       6.6020517     -2332.071      -10972.342    
      8500   171.65207      340.27499     -2339.3147      7.4772791     -2331.8375     -12011.917    
      8550   149.70327      296.76472     -2338.3815      6.5211747     -2331.8603     -11341.78     
      8600   144.34417      286.1411      -2338.147       6.2877287     -2331.8593     -11696.366    
      8650   141.84766      281.19212     -2338.1433      6.1789788     -2331.9644     -14168.19     
      8700   143.20534      283.88353     -2338.1331      6.2381204     -2331.895      -12047.842    
      8750   160.89137      318.94347     -2338.7954      7.0085355     -2331.7869     -12549.086    
      8800   148.62473      294.62666     -2338.2855      6.4741925     -2331.8113     -6806.736     
      8850   153.68077      304.64953     -2338.6395      6.6944373     -2331.945      -9913.2516    
      8900   155.01446      307.29337     -2338.6074      6.7525335     -2331.8549     -11401.39     
      8950   158.8601       314.91679     -2338.774       6.9200522     -2331.8539     -10747.504    
      9000   165.26314      327.60988     -2339.1821      7.1989731     -2331.9831     -10371.118    
      9050   147.98885      293.36612     -2338.2344      6.4464931     -2331.7879     -12392.444    
      9100   169.13139      335.27811     -2339.1863      7.3674766     -2331.8188     -9829.7545    
      9150   155.73171      308.71521     -2338.618       6.7837773     -2331.8342     -9407.0903    
      9200   153.68329      304.65453     -2338.6773      6.694547      -2331.9828     -12960.144    
      9250   161.7491       320.64381     -2338.8978      7.0458991     -2331.8519     -12153.679    
      9300   152.99939      303.29879     -2338.5102      6.6647558     -2331.8454     -11206.983    
      9350   150.05957      297.47104     -2338.5421      6.5366954     -2332.0054     -12960.633    
      9400   149.69251      296.74339     -2338.4226      6.5207059     -2331.9019     -10512.613    
      9450   170.10555      337.20924     -2339.3393      7.4099115     -2331.9294     -11025.9      
      9500   152.57757      302.4626      -2338.7298      6.6463812     -2332.0834     -9296.426     
      9550   166.64378      330.34679     -2339.2317      7.2591145     -2331.9726     -12548.124    
      9600   150.43146      298.20824     -2338.5451      6.5528949     -2331.9922     -10617.854    
      9650   157.59041      312.39981     -2339.0305      6.8647437     -2332.1658     -14332.384    
      9700   151.33718      300.00369     -2338.6622      6.5923486     -2332.0698     -7650.1911    
      9750   152.60253      302.51208     -2338.8055      6.6474683     -2332.158      -11736.198    
      9800   159.6375       316.45787     -2339.1127      6.9539164     -2332.1587     -10696.592    
      9850   165.06587      327.21881     -2339.3464      7.1903797     -2332.1561     -10837.056    
      9900   164.72314      326.5394      -2339.3595      7.1754501     -2332.184      -10051.675    
      9950   161.77919      320.70346     -2339.1269      7.0472099     -2332.0797     -11029.983    
     10000   151.96374      301.24577     -2338.8994      6.6196422     -2332.2798     -11604.852    
     10050   160.61975      318.40503     -2339.2265      6.9967036     -2332.2298     -12640.787    
     10100   153.56958      304.4291      -2339.0275      6.6895935     -2332.3379     -13455.216    
     10150   151.90287      301.1251      -2338.9791      6.6169906     -2332.3621     -8492.2089    
     10200   144.46375      286.37813     -2338.7025      6.2929375     -2332.4096     -11686.796    
     10250   154.65099      306.57284     -2339.2017      6.7367004     -2332.465      -10472.297    
     10300   161.98941      321.12018     -2339.3411      7.056367      -2332.2847     -10505.577    
     10350   143.24332      283.95883     -2338.5501      6.239775      -2332.3103     -10947.394    
     10400   152.95371      303.20823     -2339.003       6.6627657     -2332.3403     -9872.4887    
     10450   171.40452      339.78426     -2339.7698      7.4664957     -2332.3033     -13348.499    
     10500   150.05155      297.45513     -2338.8647      6.5363459     -2332.3283     -11552.241    
     10550   150.19426      297.73804     -2338.9936      6.5425626     -2332.451      -12318.43     
     10600   173.03819      343.02276     -2339.7726      7.5376592     -2332.235      -11282.025    
     10650   164.40661      325.91192     -2339.5779      7.1616618     -2332.4162     -12040.463    
     10700   162.3319       321.79911     -2339.5197      7.0712859     -2332.4484     -6976.6412    
     10750   149.13589      295.63997     -2338.9614      6.4964591     -2332.465      -11002.409    
     10800   148.58074      294.53946     -2339.1887      6.4722763     -2332.7164     -13195.816    
     10850   165.15298      327.3915      -2339.5975      7.1941744     -2332.4033     -11222.396    
     10900   153.49599      304.28322     -2339.1292      6.6863878     -2332.4428     -11915.219    
     10950   148.36874      294.11922     -2338.9254      6.4630418     -2332.4624     -11354.836    
     11000   152.02492      301.36704     -2339.1399      6.622307      -2332.5176     -9359.3925    
     11050   150.92028      299.17726     -2339.2965      6.5741884     -2332.7223     -12002.116    
     11100   155.0911       307.4453      -2339.3083      6.755872      -2332.5525     -10464.272    
     11150   148.40828      294.1976      -2338.9211      6.4647641     -2332.4563     -12596.223    
     11200   148.41029      294.20158     -2338.9326      6.4648516     -2332.4677     -8792.38      
     11250   155.25944      307.77901     -2339.1731      6.7632052     -2332.4099     -10227.548    
     11300   146.68912      290.78961     -2339.0834      6.3898762     -2332.6935     -9990.0161    
     11350   143.88016      285.22126     -2338.8402      6.2675161     -2332.5727     -10423.613    
     11400   149.43309      296.22912     -2339.0459      6.5094053     -2332.5365     -11289.828    
     11450   156.79609      310.82519     -2339.3823      6.8301427     -2332.5522     -10961.473    
     11500   152.71233      302.72973     -2339.152       6.6522511     -2332.4998     -9011.89      
     11550   154.7328       306.73501     -2339.1812      6.7402641     -2332.441      -9622.4704    
     11600   150.30226      297.95213     -2339.1388      6.547267      -2332.5915     -12387.141    
     11650   148.90778      295.18777     -2339.0858      6.4865224     -2332.5993     -12095.489    
     11700   145.68012      288.78941     -2338.9551      6.3459234     -2332.6092     -10098.577    
     11750   152.24426      301.80185     -2339.3634      6.6318617     -2332.7316     -12350.041    
     11800   156.96874      311.16744     -2339.1813      6.8376632     -2332.3437     -10284.645    
     11850   155.1619       307.58565     -2339.4309      6.7589563     -2332.6719     -11231.146    
     11900   143.99454      285.44801     -2338.9566      6.2724987     -2332.6841     -10111.957    
     11950   155.72745      308.70677     -2339.441       6.783592      -2332.6575     -10662.795    
     12000   138.38215      274.32226     -2338.9145      6.028019      -2332.8865     -13039.318    
     12050   157.46222      312.1457      -2339.4475      6.8591598     -2332.5883     -12394.321    
     12100   143.1469       283.76768     -2338.8323      6.2355747     -2332.5967     -10953.523    
     12150   137.32646      272.22951     -2338.5794      5.9820325     -2332.5974     -11301.916    
     12200   144.01625      285.49103     -2338.7235      6.273444      -2332.4501     -11325.195    
     12250   155.01716      307.29873     -2339.0645      6.7526513     -2332.3118     -10638.751    
     12300   145.8538       289.13372     -2338.9618      6.3534892     -2332.6083     -10103.931    
     12350   155.9749       309.19731     -2339.405       6.7943711     -2332.6107     -11279.893    
     12400   134.80309      267.22731     -2338.4695      5.872113      -2332.5973     -11289.619    
     12450   146.98828      291.38266     -2339.3257      6.402908      -2332.9228     -10914.295    
     12500   140.2026       277.93104     -2338.7743      6.1073191     -2332.6669     -11484.243    
     12550   149.62736      296.61423     -2339.1927      6.5178678     -2332.6749     -12096.673    
     12600   153.99938      305.28112     -2339.3888      6.708316      -2332.6805     -12768.101    
     12650   152.23028      301.77415     -2339.0347      6.6312529     -2332.4035     -8586.9689    
     12700   166.70783      330.47375     -2339.6555      7.2619045     -2332.3936     -10274.123    
     12750   152.42252      302.15523     -2339.3212      6.6396269     -2332.6816     -12557.731    
     12800   152.71894      302.74284     -2339.3421      6.6525391     -2332.6896     -6499.4624    
     12850   150.67341      298.68788     -2339.2541      6.5634346     -2332.6907     -11736.137    
     12900   144.76894      286.98313     -2339.1599      6.3062319     -2332.8537     -10731.346    
     12950   157.416        312.05406     -2339.4901      6.8571461     -2332.6329     -11430.917    
     13000   145.76027      288.94829     -2338.9819      6.3494147     -2332.6325     -11547.494    
     13050   149.84292      297.04156     -2339.1614      6.5272579     -2332.6341     -11593.575    
     13100   157.67399      312.5655      -2339.3144      6.8683845     -2332.446      -11328.591    
     13150   157.68521      312.58774     -2339.2443      6.8688733     -2332.3755     -9801.9362    
     13200   143.27664      284.02488     -2338.8826      6.2412265     -2332.6413     -8767.0475    
     13250   139.28007      276.10226     -2338.7144      6.0671331     -2332.6473     -7268.7179    
     13300   173.36223      343.66513     -2340.1316      7.5517749     -2332.5799     -11436.222    
     13350   152.13998      301.59513     -2339.3922      6.6273192     -2332.7648     -9744.4757    
     13400   154.73884      306.74699     -2339.4151      6.7405273     -2332.6746     -10217.617    
     13450   154.09843      305.47747     -2339.3944      6.7126306     -2332.6818     -9368.1179    
     13500   150.98106      299.29775     -2339.2619      6.5768361     -2332.6851     -8397.349     
     13550   147.31057      292.02154     -2339.1041      6.4169469     -2332.6872     -12037.124    
     13600   156.22966      309.70232     -2339.3214      6.8054683     -2332.5159     -9014.9774    
     13650   157.1945       311.61497     -2339.5621      6.8474973     -2332.7146     -12504.931    
     13700   172.13179      341.22596     -2340.0185      7.4981759     -2332.5203     -11619.595    
     13750   141.63237      280.76535     -2338.9008      6.1696009     -2332.7312     -10075.176    
     13800   145.9073       289.23976     -2339.0412      6.3558195     -2332.6854     -10728.189    
     13850   163.98297      325.07211     -2339.4044      7.1432077     -2332.2612     -9713.0574    
     13900   160.67873      318.52195     -2339.5358      6.9992729     -2332.5365     -12869.457    
     13950   155.10523      307.47332     -2339.459       6.7564877     -2332.7026     -10343.773    
     14000   157.54106      312.30198     -2339.2798      6.8625939     -2332.4172     -10625.997    
     14050   162.68172      322.49258     -2339.3511      7.0865244     -2332.2646     -10328.011    
     14100   144.68743      286.82156     -2338.9867      6.3026813     -2332.684      -13704.314    
     14150   139.89991      277.331       -2338.7935      6.0941336     -2332.6994     -11477.786    
     14200   149.84252      297.04076     -2338.9797      6.5272403     -2332.4524     -8846.4624    
     14250   140.32298      278.16967     -2338.6576      6.1125629     -2332.545      -7738.1222    
     14300   153.32142      303.93717     -2339.4425      6.6787837     -2332.7637     -13354.504    
     14350   151.99728      301.31226     -2339.2555      6.6211032     -2332.6344     -11538.865    
     14400   165.27935      327.642       -2339.4445      7.199679      -2332.2448     -8785.4143    
     14450   147.21378      291.82966     -2338.9498      6.4127306     -2332.5371     -12012.475    
     14500   147.4069       292.2125      -2339.1254      6.4211432     -2332.7043     -10662.217    
     14550   159.66737      316.51708     -2339.6789      6.9552174     -2332.7237     -8475.4934    
     14600   159.58271      316.34926     -2339.2163      6.9515297     -2332.2648     -7836.7788    
     14650   153.16821      303.63345     -2339.1851      6.6721096     -2332.5129     -10508.944    
     14700   149.76839      296.8938      -2339.2862      6.5240111     -2332.7622     -9364.2472    
     14750   152.61646      302.5397      -2339.275       6.6480753     -2332.627      -11785.432    
     14800   153.73812      304.76322     -2339.0689      6.6969355     -2332.372      -10393.387    
     14850   157.76886      312.75355     -2339.3624      6.8725169     -2332.4899     -8834.6617    
     14900   156.36315      309.96696     -2339.5744      6.8112835     -2332.7632     -9323.9371    
     14950   159.45122      316.0886      -2339.6699      6.9458019     -2332.7241     -9393.2208    
     15000   153.76151      304.80958     -2339.0838      6.6979543     -2332.3858     -10568.39     
     15050   150.71713      298.77455     -2339.1427      6.5653391     -2332.5774     -8951.5043    
     15100   149.52153      296.40444     -2338.8849      6.5132578     -2332.3717     -10728.471    
     15150   142.64746      282.77761     -2338.5294      6.2138186     -2332.3156     -8939.8368    
     15200   159.66893      316.52018     -2339.3666      6.9552855     -2332.4113     -10361.17     
     15250   153.15477      303.6068      -2339.3689      6.6715241     -2332.6974     -11118.24     
     15300   149.39697      296.15752     -2339.4474      6.5078318     -2332.9395     -9625.0115    
     15350   163.82053      324.7501      -2340.0203      7.1361317     -2332.8842     -11273.29     
     15400   138.91595      275.38044     -2338.9945      6.0512717     -2332.9433     -13349.086    
     15450   147.72449      292.84208     -2339.0945      6.4349777     -2332.6595     -9816.637     
     15500   161.67913      320.50509     -2339.6481      7.0428508     -2332.6052     -11833.024    
     15550   143.97784      285.4149      -2338.8702      6.2717711     -2332.5985     -12142.688    
     15600   145.96088      289.34599     -2339.3771      6.3581538     -2333.019      -9046.2534    
     15650   150.3652       298.07689     -2339.1459      6.5500085     -2332.5959     -12226.452    
     15700   159.70698      316.59559     -2339.5558      6.9569427     -2332.5989     -10563.951    
     15750   145.90576      289.23672     -2338.9527      6.3557526     -2332.5969     -11757.824    
     15800   151.65707      300.63784     -2339.2346      6.6062835     -2332.6283     -9105.4983    
     15850   156.31564      309.87277     -2339.3688      6.8092138     -2332.5596     -10655.434    
     15900   150.45976      298.26434     -2339.1327      6.5541276     -2332.5786     -9664.7477    
     15950   152.53468      302.37757     -2339.1338      6.6445126     -2332.4893     -9684.0681    
     16000   146.20459      289.82909     -2338.8432      6.3687696     -2332.4744     -13202.748    
     16050   149.84545      297.04657     -2339.1374      6.5273682     -2332.61       -13051.412    
     16100   142.45342      282.39295     -2338.7312      6.2053662     -2332.5258     -10411.317    
     16150   165.05112      327.18958     -2339.7461      7.1897373     -2332.5563     -9579.7821    
     16200   140.67248      278.8625      -2339.1493      6.1277872     -2333.0215     -12056.455    
     16250   143.93389      285.32777     -2339.3086      6.2698564     -2333.0388     -11668.685    
     16300   154.81245      306.89292     -2339.7599      6.7437339     -2333.0162     -13683.862    
     16350   154.87062      307.00823     -2339.3047      6.7462678     -2332.5584     -11238.783    
     16400   145.38661      288.20758     -2338.8962      6.333138      -2332.5631     -11086.97     
     16450   141.55718      280.61629     -2338.6453      6.1663254     -2332.479      -8528.3833    
     16500   140.79825      279.11183     -2338.6723      6.133266      -2332.539      -10903.442    
     16550   156.23156      309.7061      -2339.4077      6.8055514     -2332.6021     -12140.775    
     16600   157.0592       311.34678     -2339.3969      6.841604      -2332.5553     -12357.486    
     16650   156.06725      309.38038     -2339.3788      6.7983939     -2332.5804     -9460.7738    
     16700   145.11622      287.67157     -2339.3697      6.3213597     -2333.0484     -8332.0403    
     16750   150.93333      299.20312     -2339.1923      6.5747567     -2332.6176     -10335.116    
     16800   173.38339      343.70708     -2339.959       7.5526966     -2332.4064     -11488.511    
     16850   155.839        308.9279      -2339.2711      6.7884512     -2332.4826     -10561.185    
     16900   159.97327      317.12348     -2339.3656      6.9685426     -2332.397      -12039.037    
     16950   166.50495      330.07157     -2339.6301      7.2530668     -2332.3771     -9187.4984    
     17000   184.10113      364.95341     -2340.3418      8.0195683     -2332.3222     -11195.517    
     17050   167.98089      332.99742     -2339.6619      7.31736       -2332.3446     -9524.8209    
     17100   166.51481      330.09111     -2339.6254      7.2534963     -2332.3719     -10527.812    
     17150   159.53202      316.24877     -2339.2269      6.9493216     -2332.2776     -12568.747    
     17200   171.03362      339.04899     -2339.8365      7.4503388     -2332.3862     -8567.4062    
     17250   163.43312      323.98213     -2339.6497      7.119256      -2332.5304     -8718.1893    
     17300   152.73406      302.7728      -2339.2707      6.6531976     -2332.6175     -11071.65     
     17350   171.19924      339.37731     -2340.0056      7.4575532     -2332.548      -10749.826    
     17400   145.88794      289.20139     -2338.9577      6.3549764     -2332.6028     -9208.9821    
     17450   159.66041      316.50329     -2339.4949      6.9549143     -2332.54       -9358.8317    
     17500   170.26626      337.52783     -2339.8999      7.4169123     -2332.483      -11155.145    
     17550   165.20097      327.48663     -2339.5913      7.1962647     -2332.3951     -10598.79     
     17600   162.53278      322.19734     -2339.5036      7.0800368     -2332.4236     -11697.08     
     17650   176.05469      349.00253     -2340.1218      7.6690601     -2332.4528     -12549.021    
     17700   162.59007      322.3109      -2339.5541      7.0825321     -2332.4716     -12145.106    
     17750   165.02233      327.13251     -2339.6662      7.1884832     -2332.4778     -8994.7339    
     17800   162.59253      322.31578     -2339.7071      7.0826395     -2332.6244     -9160.3927    
     17850   177.2228       351.31814     -2340.3066      7.7199437     -2332.5867     -11284.379    
     17900   153.49713      304.28549     -2339.327       6.6864378     -2332.6406     -10702.734    
     17950   156.07226      309.39031     -2339.5412      6.7986122     -2332.7426     -9825.8368    
     18000   160.34583      317.86203     -2339.5883      6.9847716     -2332.6035     -11734.638    
     18050   157.3781       311.97893     -2339.5794      6.8554951     -2332.7239     -12454.283    
     18100   160.73231      318.62817     -2339.6423      7.0016071     -2332.6407     -10928.372    
     18150   169.25648      335.52608     -2339.9511      7.3729254     -2332.5781     -11169.385    
     18200   152.49998      302.30879     -2339.2734      6.6430013     -2332.6304     -13986.376    
     18250   154.02753      305.33693     -2339.3689      6.7095422     -2332.6593     -12452.807    
     18300   146.90843      291.22436     -2339.0627      6.3994295     -2332.6633     -11952.239    
     18350   153.03958      303.37847     -2339.4003      6.6665066     -2332.7338     -14306.462    
     18400   157.52678      312.27367     -2339.5788      6.8619717     -2332.7168     -14907.21     
     18450   157.46962      312.16037     -2339.5727      6.859482      -2332.7132     -12832.833    
     18500   147.56336      292.52266     -2339.1788      6.4279586     -2332.7508     -10157.119    
     18550   154.22583      305.73002     -2339.5207      6.7181802     -2332.8025     -11900.247    
     18600   159.82473      316.82901     -2339.6993      6.9620719     -2332.7372     -13321.555    
     18650   157.29511      311.81442     -2339.5994      6.8518802     -2332.7475     -12154.029    
     18700   145.32744      288.09027     -2339.0803      6.3305603     -2332.7498     -9515.2786    
     18750   156.88356      310.99858     -2339.6083      6.8339528     -2332.7744     -11267.261    
     18800   161.09575      319.34863     -2339.8381      7.0174386     -2332.8206     -9515.7092    
     18850   162.69399      322.5169      -2339.9118      7.0870588     -2332.8248     -10710.963    
     18900   163.06416      323.25072     -2339.9606      7.103184      -2332.8574     -10187.825    
     18950   175.07109      347.05268     -2340.2925      7.6262136     -2332.6663     -9580.4588    
     19000   155.60021      308.45453     -2339.6014      6.7780491     -2332.8234     -8584.9148    
     19050   162.66803      322.46546     -2339.9312      7.0859284     -2332.8453     -10397.123    
     19100   156.29662      309.83506     -2339.6382      6.8083853     -2332.8298     -10667.301    
     19150   159.25744      315.70446     -2339.8073      6.9373606     -2332.87       -9231.0889    
     19200   166.63468      330.32874     -2340.0283      7.2587179     -2332.7696     -10327.279    
     19250   166.63516      330.3297      -2340.0769      7.258739      -2332.8181     -11351.018    
     19300   157.51818      312.25664     -2339.6663      6.8615975     -2332.8047     -8958.2628    
     19350   154.3359       305.94823     -2339.5335      6.7229752     -2332.8106     -7810.0727    
     19400   147.7963       292.98443     -2339.3793      6.4381056     -2332.9412     -9637.2783    
     19450   141.03186      279.57493     -2338.9532      6.1434423     -2332.8098     -9512.4978    
     19500   156.05831      309.36265     -2339.6073      6.7980044     -2332.8093     -11132.49     
     19550   156.08911      309.42371     -2339.6993      6.7993461     -2332.8999     -10974.542    
     19600   177.35119      351.57265     -2340.559       7.7255363     -2332.8335     -8686.3615    
     19650   162.19173      321.52126     -2339.8845      7.0651804     -2332.8193     -10191.249    
     19700   160.69666      318.55749     -2339.7973      7.0000539     -2332.7973     -9197.0865    
     19750   163.98018      325.06658     -2339.9476      7.1430861     -2332.8045     -10166.696    
     19800   164.17364      325.4501      -2339.9831      7.1515135     -2332.8316     -10786.98     
     19850   172.24519      341.45076     -2340.2053      7.5031156     -2332.7022     -12782.004    
     19900   160.92189      319.00399     -2339.9694      7.0098653     -2332.9595     -12778.14     
     19950   144.46801      286.38659     -2339.3447      6.2931233     -2333.0516     -8385.7859    
     20000   159.0907       315.37393     -2339.8148      6.9300975     -2332.8847     -12175.907    
     20050   153.42843      304.1493      -2339.4408      6.6834451     -2332.7573     -11490.978    
     20100   148.0514       293.49012     -2339.0961      6.4492179     -2332.6469     -11537.003    
     20150   173.03029      343.0071      -2340.0696      7.537315      -2332.5323     -13361.027    
     20200   170.30498      337.60458     -2339.8746      7.4185989     -2332.456      -12371.561    
     20250   171.20247      339.38372     -2339.9257      7.4576942     -2332.468      -13217.085    
     20300   167.56763      332.17819     -2340.0136      7.2993581     -2332.7142     -9652.9064    
     20350   154.61207      306.4957      -2339.424       6.7350053     -2332.689      -10202.606    
     20400   160.53725      318.24149     -2339.7013      6.99311       -2332.7082     -7806.9758    
     20450   161.70676      320.55987     -2339.7386      7.0440546     -2332.6946     -9331.8048    
     20500   171.18248      339.3441      -2340.1351      7.4568234     -2332.6783     -11893.051    
     20550   169.20695      335.42789     -2340.1061      7.3707678     -2332.7353     -13262.363    
     20600   171.42076      339.81646     -2340.2768      7.4672032     -2332.8096     -10916.811    
     20650   163.78876      324.68714     -2339.9586      7.1347481     -2332.8238     -11519.573    
     20700   157.99061      313.19315     -2339.752       6.8821766     -2332.8698     -8150.0425    
     20750   164.39043      325.87985     -2340.0001      7.160957      -2332.8391     -10843.465    
     20800   147.55443      292.50497     -2339.2783      6.4275699     -2332.8507     -9799.0622    
     20850   177.54522      351.95729     -2340.5445      7.7339886     -2332.8105     -9756.5296    
     20900   168.40427      333.83671     -2340.209       7.3358028     -2332.8732     -12196.288    
     20950   172.10107      341.16506     -2340.4667      7.4968377     -2332.9698     -12143.222    
     21000   154.83991      306.94735     -2339.6326      6.74493       -2332.8877     -8090.0534    
     21050   155.14982      307.56169     -2339.6616      6.7584298     -2332.9031     -10703.315    
     21100   174.40974      345.74167     -2340.4486      7.5974051     -2332.8512     -11106.038    
     21150   161.63076      320.40921     -2340.1362      7.040744      -2333.0954     -11368.578    
     21200   163.35459      323.82646     -2340.1599      7.1158354     -2333.0441     -12457.873    
     21250   154.60585      306.48336     -2339.7303      6.7347341     -2332.9955     -11142.499    
     21300   156.09848      309.44228     -2339.8512      6.7997542     -2333.0514     -10987.896    
     21350   174.79482      346.50502     -2340.4734      7.6141793     -2332.8592     -12546.274    
     21400   160.81899      318.80001     -2339.8641      7.0053829     -2332.8587     -12231.246    
     21450   137.90177      273.36997     -2339.0025      6.0070932     -2332.9954     -12880.548    
     21500   166.83119      330.7183      -2340.1165      7.2672782     -2332.8493     -10981.634    
     21550   156.39797      310.03597     -2339.768       6.8128001     -2332.9552     -9048.6467    
     21600   154.22607      305.7305      -2339.775       6.7181906     -2333.0568     -7173.8899    
     21650   157.3007       311.82551     -2339.7694      6.8521238     -2332.9173     -8148.2011    
     21700   170.28158      337.55819     -2340.4923      7.4175794     -2333.0747     -10668.572    
     21750   173.45389      343.84683     -2340.5637      7.5557676     -2333.008      -11322.681    
     21800   162.88173      322.88907     -2340.208       7.0952369     -2333.1128     -10363.324    
     21850   162.14714      321.43287     -2340.2741      7.063238      -2333.2108     -10848.777    
     21900   149.14195      295.65198     -2339.6854      6.4967229     -2333.1887     -9068.4445    
     21950   177.33195      351.53451     -2340.8959      7.7246982     -2333.1712     -12339.479    
     22000   156.19008      309.62386     -2339.9648      6.8037443     -2333.161      -10171.376    
     22050   165.30894      327.70066     -2340.3182      7.200968      -2333.1173     -11602.542    
     22100   155.68983      308.6322      -2339.6984      6.7819532     -2332.9165     -12222.213    
     22150   162.0183       321.17745     -2339.9393      7.0576255     -2332.8817     -9998.0733    
     22200   165.86666      328.80626     -2340.0612      7.2252626     -2332.8359     -9029.6468    
     22250   158.72132      314.64167     -2339.5083      6.9140067     -2332.5943     -10378.651    
     22300   161.40204      319.9558      -2339.5893      7.0307807     -2332.5585     -11816.272    
     22350   150.78827      298.91556     -2339.163       6.5684377     -2332.5946     -12317.719    
     22400   173.0456       343.03745     -2340.1929      7.537982      -2332.6549     -9845.7938    
     22450   158.67334      314.54656     -2339.743       6.9119167     -2332.8311     -10859.117    
     22500   157.22799      311.68136     -2339.5735      6.8489563     -2332.7246     -10884.525    
     22550   152.31057      301.9333      -2339.2956      6.6347501     -2332.6609     -11714.371    
     22600   155.71054      308.67325     -2339.3874      6.7828554     -2332.6046     -13733.763    
     22650   164.90595      326.90179     -2339.8187      7.1834133     -2332.6352     -14635.88     
     22700   169.22584      335.46535     -2340.0881      7.371591      -2332.7165     -9982.0159    
     22750   170.50684      338.00474     -2340.1164      7.4273921     -2332.689      -12847.981    
     22800   157.46774      312.15664     -2339.5668      6.8594001     -2332.7074     -13738.803    
     22850   161.44043      320.03191     -2339.8941      7.0324531     -2332.8616     -11857.546    
     22900   155.96516      309.17799     -2339.737       6.7939466     -2332.943      -10412.054    
     22950   154.33033      305.93718     -2339.543       6.7227323     -2332.8203     -10914.698    
     23000   152.95795      303.21663     -2339.5737      6.6629505     -2332.9107     -12166.946    
     23050   165.87511      328.82302     -2340.1825      7.2256309     -2332.9569     -9314.3831    
     23100   140.86332      279.24083     -2339.0848      6.1361006     -2332.9487     -9143.7863    
     23150   158.43046      314.06509     -2339.8096      6.9013369     -2332.9083     -12069.092    
     23200   167.43137      331.90808     -2340.062       7.2934227     -2332.7686     -12793.539    
     23250   154.57646      306.42509     -2339.5067      6.7334538     -2332.7732     -13024.277    
     23300   149.54574      296.45243     -2339.3469      6.5143123     -2332.8325     -11027.55     
     23350   168.4345       333.89663     -2340.2275      7.3371196     -2332.8904     -11885.555    
     23400   169.32012      335.65223     -2340.3602      7.3756976     -2332.9845     -11129.747    
     23450   165.94628      328.9641      -2340.2716      7.2287311     -2333.0428     -11976.39     
     23500   158.76183      314.72197     -2340.0815      6.9157713     -2333.1657     -10848.026    
     23550   160.57095      318.3083      -2340.1838      6.9945781     -2333.1892     -10800.342    
     23600   150.50765      298.35928     -2339.7244      6.5562139     -2333.1682     -11165.169    
     23650   157.354        311.93117     -2340.0149      6.8544456     -2333.1604     -8340.8679    
     23700   161.15995      319.4759      -2340.2559      7.0202352     -2333.2357     -11706.322    
     23750   159.4771       316.1399      -2340.1894      6.9469292     -2333.2425     -11587.391    
     23800   146.21408      289.84792     -2339.6621      6.3691832     -2333.293      -8269.389     
     23850   168.40522      333.83858     -2340.5804      7.3358439     -2333.2445     -9604.2107    
     23900   167.37466      331.79565     -2340.5894      7.2909521     -2333.2985     -10911.987    
     23950   169.34358      335.69874     -2340.6691      7.3767195     -2333.2924     -10664.499    
     24000   161.65241      320.45213     -2340.3371      7.0416871     -2333.2954     -9055.4515    
     24050   165.01821      327.12434     -2340.2865      7.1883036     -2333.0982     -10296.726    
     24100   151.75133      300.82469     -2339.6725      6.6103893     -2333.0621     -8694.1332    
     24150   163.48004      324.07513     -2340.0291      7.1212997     -2332.9078     -9629.4414    
     24200   164.71379      326.52087     -2340.1081      7.1750431     -2332.9331     -9378.8563    
     24250   152.18467      301.68372     -2339.6224      6.6292659     -2332.9932     -12403.586    
     24300   158.65564      314.51148     -2339.9625      6.911146      -2333.0514     -11098.221    
     24350   164.91036      326.91053     -2340.1379      7.1836055     -2332.9543     -13488.901    
     24400   159.21828      315.62682     -2339.9115      6.9356546     -2332.9759     -13018.275    
     24450   155.09344      307.44993     -2339.8701      6.7559739     -2333.1141     -13321.095    
     24500   154.69847      306.66696     -2339.7456      6.7387686     -2333.0068     -10149.11     
     24550   153.72985      304.74681     -2339.7603      6.6965749     -2333.0637     -12179.757    
     24600   150.58981      298.52215     -2339.6476      6.5597927     -2333.0878     -11193.253    
     24650   156.06882      309.38348     -2339.882       6.7984622     -2333.0835     -12385.649    
     24700   151.7415       300.80521     -2339.647       6.6099612     -2333.0371     -14968.589    
     24750   155.65643      308.56598     -2339.8655      6.7804981     -2333.085      -12387.941    
     24800   159.54069      316.26596     -2340.1858      6.9496992     -2333.2361     -11099.537    
     24850   162.3987       321.93155     -2340.2957      7.0741962     -2333.2215     -12707.788    
     24900   147.09358      291.5914      -2339.7158      6.4074948     -2333.3083     -11464.483    
     24950   145.30069      288.03726     -2339.5153      6.3293954     -2333.1859     -14704.4      
     25000   157.81621      312.84744     -2340.0597      6.8745799     -2333.1851     -10494.137    
     25050   154.14727      305.57429     -2339.8559      6.7147581     -2333.1411     -12470.082    
     25100   137.39539      272.36615     -2339.1357      5.9850349     -2333.1507     -13831.993    
     25150   156.03696      309.32033     -2340.0924      6.7970745     -2333.2953     -11844.847    
     25200   153.89288      305.07001     -2340.0478      6.703677      -2333.3441     -13680.858    
     25250   149.60319      296.56631     -2339.6148      6.5168148     -2333.098      -12784.21     
     25300   147.90748      293.20483     -2339.6238      6.4429489     -2333.1809     -14193.98     
     25350   151.20684      299.74532     -2339.7536      6.586671      -2333.1669     -12393.924    
     25400   150.98407      299.30372     -2339.7566      6.5769671     -2333.1796     -12301.618    
     25450   153.09926      303.49677     -2339.833       6.6691061     -2333.1639     -11504.839    
     25500   154.66149      306.59366     -2339.9401      6.737158      -2333.203      -13521.673    
     25550   157.97986      313.17183     -2339.9951      6.8817082     -2333.1134     -12151.574    
     25600   157.59962      312.41808     -2340.1673      6.865145      -2333.3021     -10097.745    
     25650   158.79886      314.79539     -2340.1051      6.9173846     -2333.1877     -11194.359    
     25700   153.89583      305.07586     -2339.8964      6.7038054     -2333.1926     -13780.421    
     25750   143.86878      285.19869     -2339.6291      6.2670201     -2333.3621     -10481.796    
     25800   147.66979      292.73365     -2339.7406      6.4325949     -2333.308      -11190.865    
     25850   163.98946      325.08499     -2340.2808      7.1434907     -2333.1374     -11875.145    
     25900   166.65787      330.37472     -2340.5891      7.2597284     -2333.3294     -13117.492    
     25950   147.96125      293.31142     -2339.8684      6.445291      -2333.4231     -11718.682    
     26000   150.70771      298.75587     -2340.0045      6.5649286     -2333.4396     -10519.78     
     26050   144.1243       285.70522     -2339.6435      6.2781508     -2333.3654     -13230.356    
     26100   159.18005      315.55104     -2340.1505      6.9339895     -2333.2165     -9963.7794    
     26150   157.54062      312.30111     -2340.092       6.8625748     -2333.2294     -10501.097    
     26200   152.03334      301.38374     -2339.7299      6.6226741     -2333.1072     -14477.188    
     26250   152.1748       301.66417     -2339.7601      6.6288362     -2333.1313     -13461.901    
     26300   148.69046      294.75696     -2339.8808      6.4770557     -2333.4038     -11656.403    
     26350   161.41208      319.9757      -2340.4879      7.031218      -2333.4567     -11673.043    
     26400   158.48171      314.16668     -2340.3164      6.9035692     -2333.4129     -12011.351    
     26450   162.14315      321.42494     -2340.5999      7.0630639     -2333.5369     -11505.214    
     26500   152.43194      302.1739      -2340.1694      6.6400372     -2333.5294     -12902.706    
     26550   144.8369       287.11786     -2339.7527      6.3091924     -2333.4435     -8517.9824    
     26600   151.67817      300.67967     -2340.0455      6.6072025     -2333.4383     -12973.419    
     26650   155.40143      308.06049     -2340.2239      6.7693903     -2333.4545     -11003.097    
     26700   151.05301      299.44038     -2340.0796      6.5799703     -2333.4997     -11628.073    
     26750   150.66314      298.66753     -2340.0117      6.5629873     -2333.4487     -10503.292    
     26800   157.03515      311.29908     -2340.2737      6.840556      -2333.4331     -9858.6997    
     26850   141.99457      281.48335     -2339.5857      6.1853783     -2333.4003     -14359.034    
     26900   137.71783      273.00535     -2339.3347      5.9990809     -2333.3356     -12382.933    
     26950   147.69431      292.78225     -2339.8066      6.4336629     -2333.373      -16290.917    
     27000   158.98926      315.17283     -2340.3051      6.9256787     -2333.3794     -11067.643    
     27050   162.16307      321.46445     -2340.312       7.0639319     -2333.2481     -10235.759    
     27100   150.79595      298.9308      -2339.7119      6.5687726     -2333.1431     -12240.644    
     27150   156.01294      309.27271     -2339.9449      6.796028      -2333.1488     -10772.564    
     27200   161.43138      320.01397     -2340.2995      7.0320589     -2333.2674     -11523.131    
     27250   155.81644      308.88319     -2340.1747      6.7874685     -2333.3873     -12687.312    
     27300   170.74638      338.4796      -2340.9226      7.4378267     -2333.4848     -10371.121    
     27350   153.10637      303.51087     -2340.0479      6.6694161     -2333.3785     -12773.473    
     27400   149.95286      297.25949     -2340.0086      6.5320468     -2333.4766     -12451.624    
     27450   149.37822      296.12035     -2339.957       6.507015      -2333.45       -10010.197    
     27500   157.59732      312.41351     -2340.3402      6.8650447     -2333.4752     -12744.693    
     27550   158.13757      313.48447     -2340.293       6.8885782     -2333.4044     -8886.9298    
     27600   146.42984      290.27563     -2339.8108      6.3785818     -2333.4322     -10811.045    
     27650   152.34216      301.99592     -2339.9912      6.6361262     -2333.3551     -13727.058    
     27700   156.02532      309.29725     -2340.1651      6.7965673     -2333.3686     -12377.846    
     27750   157.74251      312.70134     -2339.9802      6.8713694     -2333.1088     -12418.531    
     27800   164.34438      325.78857     -2340.3559      7.1589513     -2333.1969     -15662.487    
     27850   149.62753      296.61457     -2339.7863      6.5178751     -2333.2684     -11415.135    
     27900   152.89009      303.08212     -2339.8251      6.6599946     -2333.1651     -16369.201    
     27950   152.79824      302.90004     -2339.7044      6.6559934     -2333.0484     -12998.826    
     28000   151.67544      300.67425     -2339.6753      6.6070834     -2333.0682     -14180.891    
     28050   150.90513      299.14723     -2339.7152      6.5735283     -2333.1417     -14192.599    
     28100   152.7182       302.74137     -2340.046       6.652507      -2333.3935     -13542.972    
     28150   145.08237      287.60446     -2339.5633      6.319885      -2333.2434     -12450.056    
     28200   140.63967      278.79747     -2339.3673      6.1263583     -2333.2409     -14956.528    
     28250   145.61055      288.65151     -2339.7026      6.3428932     -2333.3597     -13584.294    
     28300   155.13038      307.52316     -2339.9997      6.757583      -2333.2421     -11231.782    
     28350   160.76056      318.68417     -2340.2677      7.0028376     -2333.2649     -14649.337    
     28400   151.02689      299.38859     -2339.8563      6.5788322     -2333.2775     -13624.124    
     28450   149.49296      296.34781     -2339.8211      6.5120134     -2333.3091     -12415.453    
     28500   154.52155      306.31625     -2340.0501      6.7310621     -2333.319      -13060.886    
     28550   150.84655      299.03109     -2339.8236      6.5709764     -2333.2526     -12095.388    
     28600   160.80987      318.78192     -2340.3086      7.0049854     -2333.3036     -10447.026    
     28650   154.39146      306.05836     -2340.1303      6.7253952     -2333.4049     -11595.36     
     28700   161.39072      319.93336     -2340.3255      7.0302876     -2333.2952     -12121.93     
     28750   141.82573      281.14866     -2339.5338      6.1780238     -2333.3558     -11185.587    
     28800   135.60746      268.82185     -2339.2095      5.9071516     -2333.3023     -11499.953    
     28850   168.95775      334.93389     -2340.7848      7.3599125     -2333.4249     -12547.724    
     28900   161.48145      320.11323     -2340.4375      7.03424       -2333.4032     -9955.9471    
     28950   164.03579      325.17683     -2340.5972      7.1455088     -2333.4517     -10496.728    
     29000   160.21471      317.6021      -2340.5403      6.9790599     -2333.5612     -10244.202    
     29050   158.28563      313.77798     -2340.7103      6.8950279     -2333.8153     -9548.4842    
     29100   169.76184      336.52788     -2340.7894      7.3949392     -2333.3944     -11609.402    
     29150   149.4453       296.25332     -2340.1041      6.5099371     -2333.5942     -10692.388    
     29200   159.93884      317.05523     -2340.5281      6.9670428     -2333.5611     -8841.3491    
     29250   160.88809      318.93699     -2340.6063      7.008393      -2333.5979     -11094.003    
     29300   161.6571       320.46144     -2340.7169      7.0418916     -2333.675      -10273.786    
     29350   147.02429      291.45403     -2339.8218      6.4044763     -2333.4173     -10206.132    
     29400   161.01707      319.19266     -2340.2995      7.0140111     -2333.2855     -10033.264    
     29450   163.16466      323.44995     -2340.6308      7.1075618     -2333.5233     -12504.873    
     29500   152.3809       302.07273     -2340.2766      6.6378141     -2333.6388     -10526.421    
     29550   151.03871      299.41204     -2340.3129      6.5793474     -2333.7336     -10326.048    
     29600   166.10052      329.26986     -2340.7823      7.2354499     -2333.5468     -9707.3955    
     29650   178.87745      354.59825     -2341.1539      7.7920215     -2333.3618     -11048.476    
     29700   162.31006      321.75582     -2340.9866      7.0703346     -2333.9163     -11919.999    
     29750   151.42898      300.18568     -2340.5603      6.5963475     -2333.9639     -8977.2948    
     29800   144.66587      286.77882     -2340.3151      6.3017421     -2334.0134     -10481.681    
     29850   162.24227      321.62143     -2340.9036      7.0673816     -2333.8363     -11404.826    
     29900   151.60443      300.53348     -2340.6164      6.6039902     -2334.0124     -9965.798     
     29950   152.56592      302.4395      -2340.139       6.6458736     -2333.4931     -9019.7804    
     30000   157.17944      311.58513     -2340.676       6.8468416     -2333.8292     -12538.692    
     30050   140.44732      278.41617     -2339.9346      6.1179794     -2333.8166     -13108.387    
     30100   171.46764      339.90938     -2341.3631      7.4692451     -2333.8939     -11797.221    
     30150   164.52806      326.15268     -2340.7115      7.1669522     -2333.5446     -8924.1061    
     30200   164.74472      326.58217     -2340.841       7.17639       -2333.6646     -12200.49     
     30250   144.8572       287.15809     -2340.4144      6.3100764     -2334.1043     -12753.739    
     30300   160.59933      318.36456     -2340.8368      6.9958144     -2333.841      -9321.0668    
     30350   154.32986      305.93626     -2340.2622      6.722712      -2333.5395     -9498.8285    
     30400   161.8361       320.81628     -2341.0224      7.0496889     -2333.9728     -10713.063    
     30450   149.68846      296.73536     -2340.4054      6.5205295     -2333.8849     -11754.805    
     30500   151.37422      300.07712     -2340.6272      6.5939621     -2334.0332     -9164.6692    
     30550   143.88277      285.22642     -2340.1052      6.2676295     -2333.8376     -9910.3888    
     30600   170.26335      337.52206     -2341.0776      7.4167856     -2333.6608     -11072.99     
     30650   160.30552      317.78212     -2340.6707      6.9830156     -2333.6877     -9822.1529    
     30700   153.97026      305.22339     -2340.3742      6.7070473     -2333.6672     -9647.9881    
     30750   159.77108      316.72267     -2340.6415      6.959735      -2333.6817     -10693.212    
     30800   147.28789      291.97658     -2340.0977      6.415959      -2333.6818     -11248.712    
     30850   145.39915      288.23242     -2340.1069      6.333684      -2333.7732     -13425.049    
     30900   149.75547      296.86819     -2340.2763      6.5234483     -2333.7529     -9656.9762    
     30950   158.31074      313.82776     -2340.7136      6.8961218     -2333.8175     -10657.069    
     31000   161.06262      319.28296     -2340.772       7.0159955     -2333.756      -11273.977    
     31050   142.96701      283.41107     -2340.0678      6.2277386     -2333.8401     -10287.552    
     31100   162.65294      322.43554     -2340.8375      7.085271      -2333.7522     -10769.398    
     31150   149.59737      296.55478     -2340.3077      6.5165614     -2333.7911     -11316.079    
     31200   145.05798      287.55612     -2340.1575      6.3188228     -2333.8387     -12719.273    
     31250   164.43597      325.97012     -2341.0304      7.1629407     -2333.8675     -11712.924    
     31300   153.50968      304.31036     -2340.5674      6.6869843     -2333.8804     -9137.3468    
     31350   145.92098      289.26687     -2340.2108      6.3564153     -2333.8544     -9036.6085    
     31400   156.42961      310.09869     -2340.7523      6.8141783     -2333.9381     -14261.834    
     31450   156.59635      310.42924     -2340.7235      6.8214419     -2333.902      -12882.486    
     31500   150.15336      297.65695     -2340.438       6.5407806     -2333.8972     -9673.7992    
     31550   152.82689      302.95684     -2340.5505      6.6572417     -2333.8933     -12072.505    
     31600   153.32105      303.93643     -2340.6565      6.6787674     -2333.9777     -10194.575    
     31650   143.4886       284.44504     -2340.0439      6.2504593     -2333.7935     -11675.808    
     31700   149.75428      296.86584     -2340.5853      6.5233967     -2334.0619     -8573.9395    
     31750   158.8518       314.90033     -2340.8766      6.9196906     -2333.9569     -13105.503    
     31800   142.56869      282.62146     -2340.2484      6.2103874     -2334.038      -9736.0767    
     31850   162.42346      321.98062     -2340.8557      7.0752744     -2333.7805     -11282.221    
     31900   141.80629      281.11013     -2340.1723      6.1771771     -2333.9952     -10935.563    
     31950   153.68895      304.66574     -2340.5709      6.6947933     -2333.8761     -12377.411    
     32000   147.19982      291.80199     -2340.4212      6.4121224     -2334.0091     -11613.226    
     32050   144.4974       286.44485     -2340.2411      6.2944035     -2333.9467     -11170.668    
     32100   153.45129      304.19461     -2340.6178      6.6844407     -2333.9334     -9395.9958    
     32150   150.45654      298.25796     -2340.4113      6.5539874     -2333.8573     -10008.733    
     32200   157.24586      311.7168      -2340.5671      6.849735      -2333.7173     -10912.01     
     32250   148.47114      294.32221     -2340.4357      6.4675023     -2333.9682     -10098.959    
     32300   157.73502      312.68647     -2340.7292      6.8710428     -2333.8581     -11599.088    
     32350   150.67624      298.69348     -2340.5559      6.5635576     -2333.9924     -13075.927    
     32400   140.96141      279.43527     -2339.931       6.1403735     -2333.7906     -10805.902    
     32450   153.1052       303.50854     -2340.5966      6.6693649     -2333.9273     -9976.4613    
     32500   161.74069      320.62713     -2340.8837      7.0455326     -2333.8382     -11784.457    
     32550   146.81035      291.02993     -2340.3078      6.3951571     -2333.9126     -10374.118    
     32600   149.48337      296.32879     -2340.5028      6.5115954     -2333.9912     -11796.55     
     32650   147.44648      292.29097     -2340.323       6.4228674     -2333.9001     -13554.67     
     32700   144.92719      287.29684     -2340.2775      6.3131252     -2333.9644     -11101.673    
     32750   154.87733      307.02154     -2340.6704      6.7465603     -2333.9239     -11715.696    
     32800   158.64862      314.49757     -2340.8405      6.9108402     -2333.9297     -8497.7154    
     32850   153.21027      303.71683     -2340.5655      6.6739418     -2333.8916     -10800.434    
[...]
    192000   140.2448       278.01468     -2342.7504      6.1091571     -2336.6413     -13313.145    
    192050   161.46732      320.08521     -2343.548       7.0336243     -2336.5144     -11558.803    
    192100   168.05052      333.13544     -2343.8914      7.3203931     -2336.571      -13199.922    
    192150   137.04215      271.66592     -2342.5515      5.9696479     -2336.5818     -11188.284    
    192200   162.19133      321.52045     -2343.5814      7.0651627     -2336.5162     -11258.593    
    192250   157.91177      313.03687     -2343.5174      6.8787425     -2336.6386     -11357.076    
    192300   166.5002       330.06216     -2343.7422      7.2528601     -2336.4894     -10714.843    
    192350   153.83176      304.94884     -2343.2658      6.7010143     -2336.5648     -11482.659    
    192400   150.13026      297.61116     -2343.0992      6.5397745     -2336.5594     -12064.023    
    192450   155.39815      308.05397     -2343.3535      6.7692472     -2336.5843     -13165.299    
    192500   156.96778      311.16555     -2343.502       6.8376216     -2336.6644     -10394.339    
    192550   152.352        302.01543     -2343.2439      6.6365548     -2336.6073     -14544.261    
    192600   156.76685      310.76722     -2343.4352      6.8288688     -2336.6064     -12757.308    
    192650   152.21261      301.73912     -2343.1523      6.6304832     -2336.5218     -13823.328    
    192700   162.49338      322.11924     -2343.5667      7.0783204     -2336.4883     -10951.723    
    192750   162.11416      321.36748     -2343.5639      7.0618011     -2336.5021     -12037.315    
    192800   163.95331      325.01333     -2343.6081      7.141916      -2336.4662     -11380.393    
    192850   158.6603       314.52071     -2343.4643      6.9113487     -2336.5529     -11207.307    
    192900   155.15191      307.56585     -2343.2063      6.758521      -2336.4478     -12460.392    
    192950   177.51796      351.90325     -2344.0503      7.7328011     -2336.3175     -13741.01     
    193000   147.41142      292.22147     -2342.7742      6.4213401     -2336.3528     -13777.727    
    193050   143.36189      284.19386     -2342.5945      6.2449397     -2336.3496     -14936.359    
    193100   154.46605      306.20623     -2342.9352      6.7286446     -2336.2065     -11971.811    
    193150   144.67478      286.79648     -2342.5895      6.3021302     -2336.2873     -15753.393    
    193200   148.57383      294.52577     -2342.8404      6.4719753     -2336.3684     -13918.757    
    193250   151.75355      300.82909     -2342.8903      6.610486      -2336.2798     -14403.941    
    193300   165.82122      328.71617     -2343.5403      7.2232831     -2336.3171     -12683.717    
    193350   156.42075      310.08113     -2342.9983      6.8137923     -2336.1845     -14124.019    
    193400   152.46174      302.23298     -2343.0303      6.6413354     -2336.3889     -10026.964    
    193450   158.9456       315.08628     -2343.3717      6.9237766     -2336.448      -17010.019    
    193500   167.62173      332.28543     -2343.5439      7.3017147     -2336.2422     -13235.172    
    193550   153.18249      303.66175     -2342.7949      6.6727315     -2336.1222     -12963.29     
    193600   155.49482      308.24561     -2342.902       6.7734583     -2336.1285     -15597.308    
    193650   168.36258      333.75405     -2343.4762      7.3339865     -2336.1422     -12852.044    
    193700   142.34231      282.1727      -2342.3462      6.2005263     -2336.1456     -15804.16     
    193750   144.74942      286.94443     -2342.5003      6.3053813     -2336.1949     -16057.059    
    193800   153.12332      303.54446     -2342.8726      6.6701542     -2336.2024     -15941.931    
    193850   159.17464      315.54031     -2343.1446      6.9337536     -2336.2109     -13091.718    
    193900   158.87362      314.94358     -2343.1556      6.920641      -2336.235      -14719.266    
    193950   156.21279      309.66889     -2342.9793      6.8047338     -2336.1746     -15053.566    
    194000   149.66984      296.69846     -2342.7607      6.5197185     -2336.2409     -10118.944    
    194050   156.76211      310.75783     -2343.0532      6.8286624     -2336.2246     -17017.255    
    194100   148.41301      294.20697     -2342.709       6.4649701     -2336.244      -14779.686    
    194150   145.72187      288.87217     -2342.5305      6.3477421     -2336.1828     -12315.726    
    194200   160.20097      317.57487     -2343.159       6.9784615     -2336.1805     -12891.842    
    194250   150.75931      298.85817     -2342.7422      6.5671765     -2336.175      -9010.3294    
    194300   150.17618      297.7022      -2342.7415      6.541775      -2336.1997     -15423.312    
    194350   158.95224      315.09943     -2343.1274      6.9240657     -2336.2034     -13869.797    
    194400   159.7191       316.61962     -2343.2326      6.9574707     -2336.2751     -10738.329    
    194450   154.18705      305.65316     -2342.9746      6.7164912     -2336.2581     -14500.714    
    194500   155.02359      307.31148     -2343.0251      6.7529314     -2336.2722     -13280.521    
    194550   162.3854       321.90518     -2343.387       7.0736167     -2336.3134     -12325.172    
    194600   157.13856      311.50409     -2343.1572      6.8450608     -2336.3121     -12292.894    
    194650   151.94119      301.20106     -2342.9444      6.6186597     -2336.3257     -12790.462    
    194700   157.67936      312.57615     -2343.229       6.8686184     -2336.3604     -12383.129    
    194750   152.14999      301.61498     -2342.8892      6.6277554     -2336.2615     -12837.218    
    194800   157.99816      313.20811     -2343.1965      6.8825054     -2336.314      -10714.902    
    194850   154.51191      306.29714     -2343.013       6.7306423     -2336.2823     -12428.36     
    194900   152.48321      302.27554     -2342.9893      6.6422706     -2336.347      -10047.981    
    194950   156.99228      311.2141      -2343.2167      6.8386886     -2336.378      -13062.934    
    195000   157.41167      312.04549     -2343.2599      6.8569577     -2336.4029     -14678.616    
    195050   164.08667      325.27769     -2343.5273      7.147725      -2336.3796     -12073.732    
    195100   154.72455      306.71867     -2343.1668      6.7399049     -2336.4269     -15898.108    
    195150   157.7272       312.67099     -2343.2571      6.8707025     -2336.3864     -13667.155    
    195200   147.20668      291.81559     -2342.7713      6.4124213     -2336.3588     -15589.536    
    195250   163.29994      323.71812     -2343.4927      7.1134546     -2336.3793     -13702.493    
    195300   160.86579      318.89277     -2343.3724      7.0074214     -2336.365      -14536.371    
    195350   163.69903      324.50925     -2343.3431      7.1308392     -2336.2123     -14398.339    
    195400   154.06025      305.4018      -2342.817       6.7109677     -2336.106      -14569.955    
    195450   148.79355      294.96132     -2342.603       6.4815464     -2336.1215     -11991.949    
    195500   153.63386      304.55653     -2342.8258      6.6923937     -2336.1334     -15642.189    
    195550   142.7569       282.99456     -2342.3639      6.2185861     -2336.1453     -15635.313    
    195600   162.3767       321.88792     -2343.3361      7.0732376     -2336.2628     -14245.586    
    195650   162.91842      322.96181     -2343.3844      7.0968353     -2336.2876     -13302.25     
    195700   170.43151      337.8554      -2343.5283      7.4241105     -2336.1042     -14167.919    
    195750   162.06966      321.27927     -2343.1797      7.0598628     -2336.1198     -14059.001    
    195800   154.01492      305.31193     -2342.8404      6.7089929     -2336.1314     -14395.92     
    195850   174.28963      345.50357     -2343.7446      7.592173      -2336.1525     -15727.363    
    195900   158.03149      313.27419     -2343.0405      6.8839575     -2336.1565     -12641.367    
    195950   142.47231      282.43041     -2342.2788      6.2061892     -2336.0726     -13386.578    
    196000   152.47743      302.26408     -2342.7907      6.6420187     -2336.1487     -14645.12     
    196050   166.37625      329.81644     -2343.3596      7.2474605     -2336.1121     -12980.509    
    196100   174.11661      345.16056     -2343.7164      7.5846358     -2336.1317     -12829.448    
    196150   156.05693      309.35991     -2342.9529      6.7979441     -2336.155      -14701.038    
    196200   165.70364      328.4831      -2343.383       7.2181614     -2336.1649     -12462.016    
    196250   161.27224      319.69849     -2343.1569      7.0251264     -2336.1318     -13023.393    
    196300   171.56704      340.10643     -2343.5849      7.473575      -2336.1113     -13747.967    
    196350   166.02794      329.12597     -2343.3872      7.232288      -2336.1549     -13941.709    
    196400   150.29209      297.93197     -2342.737       6.546824      -2336.1901     -13741.309    
    196450   152.42847      302.16702     -2342.8081      6.639886      -2336.1682     -14987.108    
    196500   156.96116      311.15242     -2342.9929      6.8373332     -2336.1556     -14188.727    
    196550   163.86509      324.83844     -2343.2563      7.1380728     -2336.1182     -16569.749    
    196600   163.17288      323.46624     -2343.2019      7.1079198     -2336.094      -12552.206    
    196650   171.63502      340.24119     -2343.6453      7.4765363     -2336.1687     -16041.04     
    196700   165.55208      328.18266     -2343.3389      7.2115594     -2336.1273     -15710.655    
    196750   153.62058      304.53021     -2342.8289      6.6918152     -2336.1371     -11230.845    
    196800   152.65009      302.60635     -2342.7958      6.6495399     -2336.1463     -15958.324    
    196850   152.38203      302.07497     -2342.8013      6.6378632     -2336.1635     -16510.561    
    196900   153.44787      304.18783     -2342.9153      6.6842918     -2336.231      -12826.6      
    196950   165.19102      327.4669      -2343.4344      7.1958312     -2336.2385     -15118.822    
    197000   159.28248      315.75409     -2343.1489      6.9384513     -2336.2104     -13511.736    
    197050   155.12495      307.51241     -2342.9348      6.7573468     -2336.1775     -13005.251    
    197100   155.32313      307.90526     -2342.9652      6.7659795     -2336.1992     -13617.053    
    197150   153.33352      303.96115     -2342.8445      6.6793107     -2336.1652     -15611.764    
    197200   155.25215      307.76456     -2343.0472      6.7628876     -2336.2843     -11998.433    
    197250   163.03838      323.1996      -2343.326       7.1020607     -2336.2239     -13644.196    
    197300   164.92268      326.93496     -2343.4835      7.1841422     -2336.2994     -14273.139    
    197350   159.43656      316.05954     -2343.1736      6.9451633     -2336.2284     -11604.77     
    197400   156.41254      310.06487     -2343.033       6.8134351     -2336.2196     -14203.939    
    197450   158.02626      313.26382     -2343.147       6.8837295     -2336.2632     -13899.079    
    197500   161.0034       319.16557     -2343.2497      7.0134158     -2336.2363     -12095.753    
    197550   167.70031      332.4412      -2343.5003      7.3051377     -2336.1952     -13675.304    
    197600   155.42537      308.10795     -2342.9996      6.7704333     -2336.2292     -11886.029    
    197650   161.25419      319.66272     -2343.2155      7.0243405     -2336.1912     -13966.975    
    197700   142.0593       281.61166     -2342.4429      6.1881979     -2336.2547     -14950.071    
    197750   156.54119      310.31989     -2342.9416      6.819039      -2336.1226     -13458.384    
    197800   151.54993      300.42545     -2342.8745      6.6016164     -2336.2729     -11770.338    
    197850   157.13343      311.49392     -2343.0284      6.8448373     -2336.1836     -12097.413    
    197900   165.75108      328.57714     -2343.4364      7.2202278     -2336.2162     -12127.867    
    197950   155.66908      308.59106     -2343.0258      6.7810492     -2336.2447     -12022.78     
    198000   172.94721      342.84241     -2343.7505      7.5336961     -2336.2168     -13619.91     
    198050   170.27185      337.5389      -2343.6383      7.4171557     -2336.2212     -13139.359    
    198100   167.01459      331.08186     -2343.5443      7.2752672     -2336.269      -13627.229    
    198150   168.53341      334.09271     -2343.7557      7.3414282     -2336.4143     -13390.283    
    198200   160.16597      317.50548     -2343.2413      6.9769368     -2336.2644     -12878.233    
    198250   175.24419      347.39583     -2343.9161      7.633754      -2336.2824     -12792.681    
    198300   177.72705      352.31774     -2344.0393      7.7419091     -2336.2974     -12628.067    
    198350   168.35497      333.73896     -2343.546       7.3336549     -2336.2124     -12264.051    
    198400   163.35226      323.82184     -2343.371       7.1157338     -2336.2552     -12925.724    
    198450   147.17953      291.76178     -2342.7021      6.411239      -2336.2908     -13096.699    
    198500   155.06461      307.39279     -2343.0763      6.7547181     -2336.3216     -10683.105    
    198550   147.03605      291.47736     -2342.7259      6.4049889     -2336.3209     -14784.648    
    198600   163.99728      325.10049     -2343.4988      7.1438313     -2336.3549     -11277.226    
    198650   160.45204      318.07257     -2343.2133      6.9893981     -2336.2239     -13258.843    
    198700   156.05761      309.36126     -2343.1043      6.7979738     -2336.3063     -12667.069    
    198750   154.88213      307.03105     -2343.0218      6.7467693     -2336.2751     -12553.735    
    198800   164.86392      326.81847     -2343.4683      7.1815824     -2336.2867     -11481.053    
    198850   164.36448      325.82841     -2343.4874      7.1598266     -2336.3276     -13145.614    
    198900   153.16082      303.6188      -2343.0023      6.6717878     -2336.3305     -12424.002    
    198950   158.8626       314.92174     -2343.2193      6.9201611     -2336.2991     -13514.514    
    199000   166.25642      329.57891     -2343.5635      7.2422411     -2336.3213     -12474.9      
    199050   157.22213      311.66976     -2343.1985      6.8487013     -2336.3498     -13615.457    
    199100   143.28733      284.04605     -2342.6465      6.2416918     -2336.4048     -11655.665    
    199150   155.7394       308.73045     -2343.2041      6.7841122     -2336.42       -16985.44     
    199200   171.6461       340.26316     -2343.8647      7.477019      -2336.3877     -12570.592    
    199250   154.71052      306.69085     -2343.0683      6.7392937     -2336.329      -12391.447    
    199300   148.33799      294.05824     -2342.5503      6.4617019     -2336.0886     -13888.978    
    199350   176.69853      350.27886     -2343.8518      7.6971064     -2336.1547     -11327.832    
    199400   167.13499      331.32055     -2343.4196      7.2805121     -2336.1391     -14852.329    
    199450   152.99844      303.29692     -2342.8347      6.6647146     -2336.17       -9344.2732    
    199500   170.27973      337.55452     -2343.587       7.4174988     -2336.1695     -13376.834    
    199550   158.49894      314.20083     -2343.0931      6.9043197     -2336.1888     -12812.465    
    199600   151.63684      300.59774     -2342.7948      6.6054023     -2336.1894     -12297.369    
    199650   151.8879       301.09543     -2342.8313      6.6163387     -2336.215      -14149.665    
    199700   159.18046      315.55184     -2343.0881      6.9340071     -2336.1541     -14070.369    
    199750   164.26544      325.63207     -2343.4071      7.1555123     -2336.2516     -13630.212    
    199800   153.71928      304.72586     -2342.9602      6.6961145     -2336.2641     -16076.788    
    199850   162.58526      322.30138     -2343.2274      7.0823229     -2336.1451     -11671.371    
    199900   158.12657      313.46267     -2343.0673      6.8880991     -2336.1792     -15777.408    
    199950   152.00811      301.33373     -2342.8876      6.621575      -2336.266      -14349.643    
    200000   154.87352      307.01398     -2343.0745      6.7463942     -2336.3281     -13255.077    
colvars: Saving collective variables state to "out.colvars.state".
colvars:   Writing TI PMF to file "out.metadynamics1.ti.pmf".
Loop time of 1029.73 on 4 procs for 200000 steps with 338 atoms

Performance: 8.391 ns/day, 2.860 hours/ns, 194.225 timesteps/s, 65.648 katom-step/s
137.6% CPU use with 4 MPI tasks x 1 OpenMP threads

MPI task timing breakdown:
Section |  min time  |  avg time  |  max time  |%varavg| %total
---------------------------------------------------------------
Pair    | 816.64     | 885.16     | 945.36     | 163.2 | 85.96
Neigh   | 0.11672    | 1.4092     | 2.3189     |  71.9 |  0.14
Comm    | 13.383     | 63.999     | 139.56     | 581.5 |  6.22
Output  | 40.184     | 45.902     | 52.752     |  83.3 |  4.46
Modify  | 13.974     | 24.355     | 50.54      | 308.5 |  2.37
Other   |            | 8.909      |            |       |  0.87

Nlocal:           84.5 ave         119 max           8 min
Histogram: 1 0 0 0 0 0 0 1 0 2
Nghost:           1149 ave        1669 max         707 min
Histogram: 1 0 0 1 0 1 0 0 0 1
Neighs:              0 ave           0 max           0 min
Histogram: 4 0 0 0 0 0 0 0 0 0
FullNghs:      15038.5 ave       23420 max         781 min
Histogram: 1 0 0 0 0 1 0 0 0 2

Total # of neighbors = 60154
Ave neighs/atom = 177.97041
Neighbor list builds = 2473
Dangerous builds = 0
write_data final.data
System init for write_data ...
Generated 0 of 6 mixed pair_coeff terms from geometric mixing rule

CITE-CITE-CITE-CITE-CITE-CITE-CITE-CITE-CITE-CITE-CITE-CITE-CITE

Your simulation uses code contributions which should be cited:

- Colvars module (Fiorin2013, plus other works listed for specific features)


% Colvars module:
% Colvars-LAMMPS interface:
% Metadynamics colvar bias implementation:
% Optimal rotation via flexible fitting:
% distanceZ colvar component:

@article{Fiorin2013,
  author = {Fiorin, Giacomo and Klein, Michael L.{} and H\'enin, J\'er\^ome},
  title = {Using collective variables to drive molecular dynamics simulations},
  journal = {Mol. Phys.},
  year = {2013},
  volume = {111},
  number = {22-23},
  pages = {3345--3362},
  publisher = {Taylor & Francis},
  doi = {10.1080/00268976.2013.813594},
  url = {https://doi.org/10.1080/00268976.2013.813594}
}


% Internal-forces free energy estimator:

@article{Henin2010,
  author = {H\'enin, J\'er\^ome and Fiorin, Giacomo and Chipot, Christophe and Klein, Michael L.},
  title = {Exploring multidimensional free energy landscapes using time-dependent biases on collective variables},
  journal = {J. Chem. Theory Comput.},
  year = {2010},
  volume = {6},
  pages = {35-47},
  number = {1},
  doi = {10.1021/ct9004432},
  pmid = {26614317},
  url = {https://doi.org/10.1021/ct9004432}
}


% LAMMPS engine:

@article{Thompson2022,
  title = {{LAMMPS} - a flexible simulation tool for particle-based materials modeling at the atomic, meso, and continuum scales},
  author = {Thompson, Aidan P. and Aktulga, H. Metin and Berger, Richard and Bolintineanu, Dan S. and Brown, W. Michael and Crozier, Paul S. and {in't Veld}, Pieter J. and Kohlmeyer, Axel and Moore, Stan G. and Nguyen, Trung Dac and Shan, Ray and Stevens, Mark J. and Tranchida, Julien and Trott, Christian and Plimpton, Steven J.},
  journal = {Comp. Phys. Comm.},
  volume = {271},
  pages = {108171},
  year = {2022},
  doi = {10.1016/j.cpc.2021.108171},
  url = {https://doi.org/10.1016/j.cpc.2021.108171}
}

CITE-CITE-CITE-CITE-CITE-CITE-CITE-CITE-CITE-CITE-CITE-CITE-CITE

Total wall time: 0:17:37
