LAMMPS (2 Aug 2023)
OMP_NUM_THREADS environment is not set. Defaulting to 1 thread. (src/comm.cpp:98)
  using 1 OpenMP thread(s) per MPI task
Loaded 1 plugins from /work/home/baoergen22b/apprepo/deepmd/v2.2.9-dtk23.10/app/lib/deepmd_lmp
Reading data file ...
  orthogonal box = (0 0 0) to (11.328 12.015 32)
  1 by 1 by 4 MPI processor grid
  reading atoms ...
  338 atoms
  read_data CPU = 0.027 seconds
Summary of lammps deepmd module ...
  >>> Info of deepmd-kit:
  installed to:       /work/home/wys974137909/shangcheng/deepmd-kit/20240715/deepmd-kit_v2.2.9/install
  source:             v2.2.9
  source branch:      HEAD
  source commit:      be43748
  source commit at:   2024-02-04 13:44:12 +0800
  support model ver.: 1.1 
  build variant:      rocm
  build with tf inc:  /work/home/wys974137909/shangcheng/miniconda3/envs/deepmd-kit-v2.2.9/lib/python3.8/site-packages/tensorflow/include;/work/home/wys974137909/shangcheng/miniconda3/envs/deepmd-kit-v2.2.9/lib/python3.8/site-packages/tensorflow/include
  build with tf lib:  /work/home/wys974137909/shangcheng/miniconda3/envs/deepmd-kit-v2.2.9/lib/python3.8/site-packages/tensorflow/lib/libtensorflow_cc.so
  set tf intra_op_parallelism_threads: 0
  set tf inter_op_parallelism_threads: 0
  >>> Info of lammps module:
  use deepmd-kit at:  /work/home/wys974137909/shangcheng/deepmd-kit/20240715/deepmd-kit_v2.2.9/install
  source:             v2.2.9
  source branch:      HEAD
  source commit:      be43748
  source commit at:   2024-02-04 13:44:12 +0800
  build float prec:   double
  build with tf inc:  /work/home/wys974137909/shangcheng/miniconda3/envs/deepmd-kit-v2.2.9/lib/python3.8/site-packages/tensorflow/include;/work/home/wys974137909/shangcheng/miniconda3/envs/deepmd-kit-v2.2.9/lib/python3.8/site-packages/tensorflow/include
  build with tf lib:  /work/home/wys974137909/shangcheng/miniconda3/envs/deepmd-kit-v2.2.9/lib/python3.8/site-packages/tensorflow/lib/libtensorflow_cc.so
INVALID_ARGUMENT: Tensor spin_attr/ntypes_spin:0, specified in either feed_devices or fetch_devices was not found in the Graph
INVALID_ARGUMENT: Tensor spin_attr/ntypes_spin:0, specified in either feed_devices or fetch_devices was not found in the Graph
INVALID_ARGUMENT: Tensor spin_attr/ntypes_spin:0, specified in either feed_devices or fetch_devices was not found in the Graph
INVALID_ARGUMENT: Tensor spin_attr/ntypes_spin:0, specified in either feed_devices or fetch_devices was not found in the Graph
  >>> Info of model(s):
  using   1 model(s): graph-compress.pb 
  rcut in model:      6
  ntypes in model:    5
167 atoms in group fixed
171 atoms in group mobile

CITE-CITE-CITE-CITE-CITE-CITE-CITE-CITE-CITE-CITE-CITE-CITE-CITE

Your simulation uses code contributions which should be cited:
- GPU package (short-range, long-range and three-body potentials): doi:10.1016/j.cpc.2010.12.021, doi:10.1016/j.cpc.2011.10.012, doi:10.1016/j.cpc.2013.08.002, doi:10.1016/j.commatsci.2014.10.068, doi:10.1016/j.cpc.2016.10.020, doi:10.3233/APC200086
- USER-DEEPMD package:
The log file lists these citations in BibTeX format.

CITE-CITE-CITE-CITE-CITE-CITE-CITE-CITE-CITE-CITE-CITE-CITE-CITE

Generated 0 of 10 mixed pair_coeff terms from geometric mixing rule
Neighbor list info ...
  update: every = 1 steps, delay = 0 steps, check = yes
  max neighbors/atom: 2000, page size: 100000
  master list distance cutoff = 8
  ghost atom cutoff = 8
  binsize = 4, bins = 3 4 8
  1 neighbor lists, perpetual/occasional/extra = 1 0 0
  (1) pair deepmd, perpetual
      attributes: full, newton on
      pair build: full/bin/atomonly
      stencil: full/bin/3d
      bin: standard
Setting up Verlet run ...
  Unit style    : metal
  Current step  : 0
  Time step     : 0.0005
colvars: Creating proxy instance
colvars: ----------------------------------------------------------------------
colvars: Initializing the collective variables module, version 2023-05-01.
colvars: Please cite Fiorin et al, Mol Phys 2013:
colvars:   https://doi.org/10.1080/00268976.2013.813594
colvars: as well as all other papers listed below for individual features used.
colvars: This version was built with the C++11 standard or higher.
colvars: Using LAMMPS interface, version "2023-04-12".
colvars: ----------------------------------------------------------------------
colvars: Reading new configuration from file "pmf.in":
colvars: # units = "" [default]
colvars: # smp = on [default]
colvars: # colvarsTrajFrequency = 100 [default]
colvars: # colvarsRestartFrequency = 0 [default]
colvars: # scriptedColvarForces = off [default]
colvars: # scriptingAfterBiases = off [default]
colvars: ----------------------------------------------------------------------
colvars:   Initializing a new collective variable.
colvars:   # name = "cn_fe_fe"
colvars:   Initializing a new "coordNum" component.
colvars:     # name = "" [default]
colvars:     # componentCoeff = 1 [default]
colvars:     # componentExp = 1 [default]
colvars:     # period = 0 [default]
colvars:     # wrapAround = 0 [default]
colvars:     # forceNoPBC = off [default]
colvars:     # scalable = on [default]
colvars:       Initializing atom group "group1".
colvars:       # name = "" [default]
colvars:       # centerToOrigin = off [default]
colvars:       # centerToReference = off [default]
colvars:       # rotateToReference = off [default]
colvars:       # atomsOfGroup = "" [default]
colvars:       # indexGroup = "" [default]
colvars:       # psfSegID =  [default]
colvars:       # atomsFile = "" [default]
colvars:       # dummyAtom = ( 0 , 0 , 0 ) [default]
colvars:       # enableFitGradients = on [default]
colvars:       # printAtomIDs = off [default]
colvars:       Atom group "group1" defined with 1 atoms requested.
colvars:       Initializing atom group "group2".
colvars:       # name = "" [default]
colvars:       # centerToOrigin = off [default]
colvars:       # centerToReference = off [default]
colvars:       # rotateToReference = off [default]
colvars:       # atomsOfGroup = "" [default]
colvars:       # indexGroup = "" [default]
colvars:       # psfSegID =  [default]
colvars:       # atomsFile = "" [default]
colvars:       # dummyAtom = ( 0 , 0 , 0 ) [default]
colvars:       # enableFitGradients = on [default]
colvars:       # printAtomIDs = off [default]
colvars:       Atom group "group2" defined with 167 atoms requested.
colvars:     # cutoff = 2.5
colvars:     # cutoff3 = ( 4 , 4 , 4 ) [default]
colvars:     # expNumer = 6 [default]
colvars:     # expDenom = 12 [default]
colvars:     # group2CenterOnly = off [default]
colvars:     # tolerance = 0 [default]
colvars:   All components initialized.
colvars:   # timeStepFactor = 1 [default]
colvars:   # width = 0.2
colvars:   # lowerBoundary = 0
colvars:   # upperBoundary = 6
colvars:   # hardLowerBoundary = off [default]
colvars:   # hardUpperBoundary = off [default]
colvars:   # expandBoundaries = off [default]
colvars:   # extendedLagrangian = off [default]
colvars:   # outputValue = on [default]
colvars:   # outputVelocity = off [default]
colvars:   # outputTotalForce = off [default]
colvars:   # outputAppliedForce = off [default]
colvars:   # subtractAppliedForce = off [default]
colvars:   # runAve = off [default]
colvars:   # corrFunc = off [default]
colvars: ----------------------------------------------------------------------
colvars:   Initializing a new collective variable.
colvars:   # name = "cn_fe_o"
colvars:   Initializing a new "coordNum" component.
colvars:     # name = "" [default]
colvars:     # componentCoeff = 1 [default]
colvars:     # componentExp = 1 [default]
colvars:     # period = 0 [default]
colvars:     # wrapAround = 0 [default]
colvars:     # forceNoPBC = off [default]
colvars:     # scalable = on [default]
colvars:       Initializing atom group "group1".
colvars:       # name = "" [default]
colvars:       # centerToOrigin = off [default]
colvars:       # centerToReference = off [default]
colvars:       # rotateToReference = off [default]
colvars:       # atomsOfGroup = "" [default]
colvars:       # indexGroup = "" [default]
colvars:       # psfSegID =  [default]
colvars:       # atomsFile = "" [default]
colvars:       # dummyAtom = ( 0 , 0 , 0 ) [default]
colvars:       # enableFitGradients = on [default]
colvars:       # printAtomIDs = off [default]
colvars:       Atom group "group1" defined with 1 atoms requested.
colvars:       Initializing atom group "group2".
colvars:       # name = "" [default]
colvars:       # centerToOrigin = off [default]
colvars:       # centerToReference = off [default]
colvars:       # rotateToReference = off [default]
colvars:       # atomsOfGroup = "" [default]
colvars:       # indexGroup = "" [default]
colvars:       # psfSegID =  [default]
colvars:       # atomsFile = "" [default]
colvars:       # dummyAtom = ( 0 , 0 , 0 ) [default]
colvars:       # enableFitGradients = on [default]
colvars:       # printAtomIDs = off [default]
colvars:       Atom group "group2" defined with 56 atoms requested.
colvars:     # cutoff = 3
colvars:     # cutoff3 = ( 4 , 4 , 4 ) [default]
colvars:     # expNumer = 6 [default]
colvars:     # expDenom = 12 [default]
colvars:     # group2CenterOnly = off [default]
colvars:     # tolerance = 0 [default]
colvars:   All components initialized.
colvars:   # timeStepFactor = 1 [default]
colvars:   # width = 0.1
colvars:   # lowerBoundary = 0.5
colvars:   # upperBoundary = 7
colvars:   # hardLowerBoundary = off [default]
colvars:   # hardUpperBoundary = off [default]
colvars:   # expandBoundaries = off [default]
colvars:   # extendedLagrangian = off [default]
colvars:   # outputValue = on [default]
colvars:   # outputVelocity = off [default]
colvars:   # outputTotalForce = off [default]
colvars:   # outputAppliedForce = off [default]
colvars:   # subtractAppliedForce = off [default]
colvars:   # runAve = off [default]
colvars:   # corrFunc = off [default]
colvars: ----------------------------------------------------------------------
colvars: Collective variables initialized, 2 in total.
colvars: ----------------------------------------------------------------------
colvars:   Initializing a new "metadynamics" instance.
colvars:   # name = "meta2d"
colvars:   # colvars = { cn_fe_fe, cn_fe_o }
colvars:   # stepZeroData = off [default]
colvars:   # outputEnergy = off [default]
colvars:   # outputFreq = 0 [default]
colvars:   # timeStepFactor = 1 [default]
colvars:   # writeTISamples = off [default]
colvars:   # writeTIPMF = off [default]
colvars:   # hillWeight = 0.05
colvars:   # newHillFrequency = 300
colvars:   # gaussianSigmas =  [default]
colvars:   # hillWidth = 0.1
colvars:   Half-widths of the Gaussian hills (sigma's):
colvars:   cn_fe_fe: 0.01
colvars:   cn_fe_o: 0.005
colvars:   # multipleReplicas = off [default]
colvars:   # useGrids = on [default]
colvars:   Warning: gaussianSigmas is too narrow for the grid spacing along cn_fe_fe.
colvars:   Warning: gaussianSigmas is too narrow for the grid spacing along cn_fe_o.
colvars:   # gridsUpdateFrequency = 300 [default]
colvars:   # rebinGrids = off [default]
colvars:   # writeFreeEnergyFile = on [default]
colvars:   # keepHills = off [default]
colvars:   # keepFreeEnergyFiles = off [default]
colvars:   # writeHillsTrajectory = off [default]
colvars:   # wellTempered = off [default]
colvars:   # biasTemperature = 800
colvars:   # ebMeta = off [default]
colvars: ----------------------------------------------------------------------
colvars: Collective variables biases initialized, 1 in total.
colvars: ----------------------------------------------------------------------
colvars: Collective variables module (re)initialized.
colvars: ----------------------------------------------------------------------
colvars: Re-initialized atom group for variable "cn_fe_fe":0/0. 1 atoms: total mass = 55.845, total charge = 4.67539e-310.
colvars: Re-initialized atom group for variable "cn_fe_fe":0/1. 167 atoms: total mass = 9322.27, total charge = 1.0563e+253.
colvars: Re-initialized atom group for variable "cn_fe_o":0/0. 1 atoms: total mass = 55.845, total charge = 4.67539e-310.
colvars: Re-initialized atom group for variable "cn_fe_o":0/1. 56 atoms: total mass = 895.944, total charge = 3.60241e+252.
colvars: The restart output state file will be "rest.colvars.state".
colvars: The final output state file will be "out.colvars.state".
Per MPI rank memory allocation (min/avg/max) = 3.139 | 3.164 | 3.181 Mbytes
   Step          Temp         c_mTemp         PotEng         KinEng         TotEng         Press     
         0   150.40208      298.15        -2337.9556      6.5516151     -2331.404      -12354.234    
        50   174.75435      346.42479     -2339.0148      7.6124162     -2331.4023     -10587.611    
       100   178.86315      354.56989     -2339.1999      7.7913983     -2331.4085     -13021.275    
       150   166.15314      329.37416     -2338.6562      7.2377417     -2331.4184     -12228.65     
       200   152.15777      301.63041     -2338.0477      6.6280943     -2331.4196     -7723.5776    
       250   149.77035      296.89769     -2337.9499      6.5240964     -2331.4258     -13627.48     
       300   168.02346      333.0818      -2338.7575      7.3192143     -2331.4383     -10070.995    
       350   162.63924      322.40838     -2338.3531      7.0846742     -2331.2684     -13979.905    
       400   158.80438      314.80633     -2338.1937      6.9176249     -2331.2761     -13914.894    
       450   171.96407      340.89348     -2338.7741      7.4908699     -2331.2832     -12588.553    
       500   165.3966       327.87444     -2338.4821      7.2047867     -2331.2773     -13600.017    
       550   154.8517       306.97073     -2338.0302      6.7454437     -2331.2847     -10787.296    
       600   158.76337      314.72502     -2338.2172      6.9158384     -2331.3013     -11422.844    
       650   169.27609      335.56495     -2338.686       7.3737797     -2331.3122     -12816.689    
       700   166.65332      330.3657      -2338.5872      7.25953       -2331.3277     -9940.5567    
       750   167.33264      331.71234     -2338.624       7.2891215     -2331.3349     -15283.471    
       800   159.37829      315.94402     -2338.2964      6.9426249     -2331.3537     -13879.536    
       850   161.98022      321.10197     -2338.4298      7.0559667     -2331.3739     -11076.85     
       900   158.15479      313.51862     -2338.2739      6.8893285     -2331.3846     -11556.354    
       950   150.77379      298.88686     -2337.9746      6.5678069     -2331.4067     -13825.6      
      1000   154.82414      306.91608     -2338.1664      6.7442429     -2331.4221     -14854.75     
      1050   155.39932      308.0563      -2338.2062      6.7692984     -2331.4369     -16607.72     
      1100   148.05686      293.50096     -2337.9019      6.449456      -2331.4525     -10933.245    
      1150   155.71317      308.67847     -2338.2459      6.78297       -2331.4629     -12290.954    
      1200   161.01121      319.18106     -2338.4872      7.0137562     -2331.4734     -12869        
      1250   153.26845      303.83217     -2338.1591      6.6764763     -2331.4826     -13297.529    
      1300   141.0512       279.61325     -2337.6456      6.1442844     -2331.5013     -12415.597    
      1350   159.89908      316.9764      -2338.4909      6.9653107     -2331.5256     -15098.6      
      1400   156.79863      310.83022     -2338.3723      6.830253      -2331.5421     -13992.501    
      1450   154.08946      305.45969     -2338.2675      6.7122399     -2331.5553     -11209.084    
      1500   140.84223      279.19901     -2337.7152      6.1351818     -2331.58       -13344.812    
      1550   152.55931      302.42639     -2338.244       6.6455854     -2331.5984     -10740.455    
      1600   150.38397      298.1141      -2338.1735      6.5508263     -2331.6227     -10370.822    
      1650   160.31707      317.80502     -2338.6326      6.9835189     -2331.6491     -13800.337    
      1700   155.00018      307.26507     -2338.4305      6.7519116     -2331.6786     -11201.154    
      1750   160.92304      319.00626     -2338.7131      7.0099152     -2331.7032     -11845.824    
      1800   159.38426      315.95585     -2338.6699      6.9428848     -2331.727      -11477.231    
      1850   144.21032      285.87575     -2337.708       6.2818979     -2331.4261     -9407.6973    
      1900   133.9131       265.46303     -2337.2801      5.8333442     -2331.4468     -10663.112    
      1950   146.92106      291.24939     -2337.8652      6.3999795     -2331.4652     -13227.509    
      2000   162.50482      322.14191     -2338.5677      7.0788188     -2331.4888     -14015.217    
      2050   183.38599      363.53575     -2339.5008      7.9884163     -2331.5124     -10856.793    
      2100   167.63728      332.31626     -2338.8345      7.3023922     -2331.5321     -11591.572    
      2150   187.88992      372.46413     -2339.7466      8.1846104     -2331.562      -11650.596    
      2200   188.85479      374.37685     -2339.8249      8.226641      -2331.5983     -10731.585    
      2250   179.41007      355.65407     -2339.4413      7.8152225     -2331.6261     -15080.12     
      2300   176.88597      350.65043     -2339.3716      7.7052713     -2331.6663     -11783.641    
      2350   185.70462      368.13209     -2339.8036      8.0894173     -2331.7142     -9347.0839    
      2400   173.23272      343.4084      -2339.2949      7.5461334     -2331.7487     -13925.357    
      2450   155.83428      308.91855     -2338.5672      6.7882456     -2331.7789     -11861.395    
      2500   170.91703      338.81788     -2339.2591      7.4452602     -2331.8138     -10239.875    
      2550   173.6287       344.19336     -2339.4163      7.5633822     -2331.8529     -12090.332    
      2600   166.79317      330.64294     -2339.1511      7.2656222     -2331.8855     -15102.719    
      2650   174.95593      346.82439     -2339.5497      7.6211972     -2331.9285     -11318.556    
      2700   177.87582      352.61266     -2339.7138      7.7483898     -2331.9654     -12186.348    
      2750   165.03843      327.16442     -2339.1924      7.1891846     -2332.0032     -10541.756    
      2800   172.11565      341.19396     -2339.5406      7.4974728     -2332.0431     -12080.311    
      2850   181.12452      359.05272     -2339.9779      7.8899052     -2332.088      -8062.6987    
      2900   162.11589      321.3709      -2339.1837      7.0618764     -2332.1218     -12798.9      
      2950   173.48173      343.90201     -2339.7158      7.5569801     -2332.1588     -10175.766    
      3000   160.48494      318.13779     -2339.1938      6.9908314     -2332.203      -12026.012    
      3050   162.08694      321.31352     -2339.3008      7.0606154     -2332.2402     -11475.052    
      3100   168.84574      334.71184     -2339.6308      7.3550332     -2332.2758     -13138.254    
      3150   173.79392      344.52088     -2339.8738      7.5705793     -2332.3032     -12534.675    
      3200   173.73539      344.40486     -2339.91        7.5680298     -2332.342      -13541.047    
      3250   161.85213      320.84805     -2339.4168      7.0503871     -2332.3664     -12942.501    
      3300   177.27184      351.41535     -2340.1132      7.7220798     -2332.3911     -9257.7639    
      3350   177.53098      351.92906     -2340.1563      7.7333683     -2332.4229     -14195.216    
      3400   160.29762      317.76646     -2339.4304      6.9826716     -2332.4477     -14756.069    
      3450   154.5709       306.41408     -2339.2083      6.7332117     -2332.4751     -10832.807    
      3500   165.53903      328.15678     -2339.7143      7.2109908     -2332.5033     -12281.321    
      3550   163.96854      325.04353     -2339.6741      7.1425795     -2332.5315     -13589.506    
      3600   153.81002      304.90576     -2339.2496      6.7000676     -2332.5495     -13398.117    
      3650   159.66287      316.50815     -2339.5323      6.9550213     -2332.5773     -11645.495    
      3700   156.19806      309.63969     -2339.3981      6.8040921     -2332.594      -13488.771    
      3750   153.70137      304.69037     -2339.3091      6.6953345     -2332.6138     -11073.074    
      3800   156.44061      310.12051     -2339.45        6.8146577     -2332.6354     -10740.635    
      3850   161.52698      320.20349     -2339.6889      7.0362235     -2332.6527     -12523.269    
      3900   165.47567      328.03117     -2339.8827      7.2082307     -2332.6745     -11728.264    
      3950   160.75424      318.67165     -2339.694       7.0025624     -2332.6915     -14249.087    
      4000   166.77658      330.61005     -2339.9745      7.2648994     -2332.7096     -11951.507    
      4050   165.28828      327.65971     -2339.931       7.2000682     -2332.7309     -15109.586    
      4100   168.34285      333.71495     -2340.0821      7.3331272     -2332.749      -11408.947    
      4150   166.83115      330.71822     -2340.0347      7.2672765     -2332.7674     -10994.027    
      4200   170.72754      338.44225     -2340.2295      7.437006      -2332.7925     -14889.68     
      4250   160.13192      317.43798     -2339.7858      6.9754534     -2332.8103     -12447.854    
      4300   174.07415      345.0764      -2340.3995      7.5827863     -2332.8167     -13989.828    
      4350   149.91668      297.18776     -2339.3572      6.5304707     -2332.8267     -14972.762    
      4400   161.33131      319.81561     -2339.8685      7.0277        -2332.8408     -11926.002    
      4450   159.34702      315.88203     -2339.8058      6.9412626     -2332.8646     -9676.4276    
      4500   166.08027      329.22971     -2340.1117      7.2345677     -2332.8771     -19069.115    
      4550   166.92929      330.91277     -2340.1684      7.2715515     -2332.8969     -14993.735    
      4600   184.81916      366.37681     -2340.9746      8.0508464     -2332.9237     -10462.02     
      4650   164.99255      327.07347     -2340.1237      7.1871859     -2332.9366     -11055.279    
      4700   163.6712       324.45409     -2340.0826      7.129627      -2332.953      -10592.596    
      4750   161.29816      319.74989     -2340.0033      7.0262558     -2332.977      -12233.292    
      4800   165.11475      327.31572     -2340.1918      7.1925091     -2332.9993     -12485.169    
      4850   146.59031      290.59372     -2339.401       6.3855718     -2333.0154     -9211.2368    
      4900   162.557        322.24536     -2340.1261      7.0810918     -2333.045      -10062.504    
      4950   176.29087      349.47072     -2340.7447      7.6793482     -2333.0653     -10059.627    
      5000   153.32826      303.95072     -2339.7645      6.6790814     -2333.0855     -12959.828    
      5050   163.50382      324.12228     -2340.2294      7.1223358     -2333.107      -8550.9482    
      5100   182.01674      360.82142     -2341.0713      7.9287709     -2333.1425     -12410.651    
      5150   171.10524      339.19098     -2340.6169      7.4534587     -2333.1635     -13353.529    
      5200   173.76058      344.45479     -2340.7661      7.569127      -2333.197      -12520.728    
      5250   173.60331      344.14304     -2340.7877      7.5622764     -2333.2254     -12567.006    
      5300   168.86465      334.74933     -2340.6056      7.3558571     -2333.2497     -13579.348    
      5350   171.11339      339.20713     -2340.7287      7.4538136     -2333.2748     -9832.1464    
      5400   160.61977      318.40507     -2340.3007      6.9967045     -2333.304      -10685.167    
      5450   165.54379      328.16622     -2340.5472      7.2111982     -2333.336      -16372.347    
      5500   159.41816      316.02305     -2340.3152      6.9443615     -2333.3708     -10811.233    
      5550   159.9238       317.02541     -2340.359       6.9663875     -2333.3927     -12608.641    
      5600   158.94808      315.09119     -2340.3546      6.9238847     -2333.4307     -10625.109    
      5650   175.35911      347.62364     -2341.0966      7.6387599     -2333.4578     -9767.2454    
      5700   172.76574      342.48268     -2341.0135      7.5257914     -2333.4877     -9244.1801    
      5750   165.29656      327.67613     -2340.7188      7.2004289     -2333.5184     -12326.226    
      5800   162.71449      322.55755     -2340.6368      7.0879521     -2333.5489     -11143.16     
      5850   161.90736      320.95753     -2340.6336      7.0527929     -2333.5808     -9787.9333    
      5900   168.75175      334.52553     -2340.9738      7.3509391     -2333.6228     -11100.764    
      5950   166.46273      329.98789     -2340.9035      7.251228      -2333.6522     -13469.235    
      6000   163.62364      324.3598      -2340.8177      7.1275552     -2333.6901     -4757.2562    
      6050   151.56979      300.46483     -2340.3247      6.6024816     -2333.7222     -15010.534    
      6100   164.31799      325.73624     -2340.9199      7.1578014     -2333.7621     -12088.368    
      6150   156.44986      310.13884     -2340.6019      6.8150605     -2333.7868     -12186.42     
      6200   154.53937      306.35157     -2340.5497      6.7318381     -2333.8179     -13291.307    
      6250   156.7033       310.64124     -2340.6776      6.8261004     -2333.8515     -11581.135    
      6300   165.23191      327.54796     -2341.0791      7.1976125     -2333.8815     -12244.568    
      6350   163.08029      323.28269     -2341.0041      7.1038864     -2333.9002     -12764.672    
      6400   166.47367      330.00958     -2341.1808      7.2517046     -2333.9291     -12822.989    
      6450   155.00079      307.26628     -2340.7193      6.7519383     -2333.9674     -11427.903    
      6500   171.91518      340.79656     -2341.494       7.4887401     -2334.0053     -10787.538    
      6550   179.99674      356.81706     -2341.881       7.8407782     -2334.0402     -15580.333    
      6600   149.77287      296.90268     -2340.5839      6.5242062     -2334.0597     -9970.3584    
      6650   160.44171      318.0521      -2341.0864      6.9889483     -2334.0974     -12772.764    
      6700   163.23981      323.59891     -2341.2396      7.1108352     -2334.1288     -13996.449    
      6750   169.8137       336.63069     -2341.5674      7.3971984     -2334.1702     -15745.648    
      6800   173.76216      344.45793     -2341.7725      7.5691958     -2334.2033     -11460.815    
      6850   157.65089      312.51971     -2341.0885      6.8673782     -2334.2212     -11380.765    
      6900   164.68348      326.46078     -2341.392       7.1737225     -2334.2182     -8889.8551    
      6950   168.55189      334.12934     -2341.5928      7.3422331     -2334.2506     -15815.744    
      7000   166.1582       329.3842      -2341.5214      7.2379623     -2334.2835     -10310.986    
      7050   177.27736      351.4263      -2342.0394      7.7223205     -2334.3171     -9311.3528    
      7100   164.33914      325.77819     -2341.5113      7.158723      -2334.3526     -10870.933    
      7150   170.00553      337.01097     -2341.7941      7.4055547     -2334.3886     -12688.575    
      7200   165.78862      328.65156     -2341.6422      7.2218631     -2334.4203     -7232.5557    
      7250   154.18712      305.6533      -2341.161       6.7164942     -2334.4446     -12141.969    
      7300   159.59045      316.36459     -2341.4257      6.9518667     -2334.4738     -11047.164    
      7350   159.07228      315.33741     -2341.4376      6.9292951     -2334.5084     -6532.2216    
      7400   159.0548       315.30276     -2341.4652      6.9285336     -2334.5366     -8238.4589    
      7450   162.45373      322.04063     -2341.6496      7.0765931     -2334.573      -9004.0161    
      7500   191.0564       378.74121     -2342.9313      8.3225444     -2334.6088     -10261.767    
      7550   175.24891      347.4052      -2342.0749      7.6339599     -2334.441      -8695.0706    
      7600   167.67756      332.3961      -2341.7677      7.3041467     -2334.4636     -10489.974    
      7650   153.64895      304.58645     -2341.1939      6.693051      -2334.5009     -7010.4242    
      7700   161.58288      320.3143      -2341.5756      7.0386583     -2334.537      -10915.589    
      7750   178.38221      353.6165      -2342.3527      7.7704484     -2334.5823     -12150.877    
      7800   197.6605       391.83287     -2343.2405      8.6102235     -2334.6302     -9277.9969    
      7850   189.20408      375.06927     -2342.9067      8.2418564     -2334.6649     -8581.8743    
      7900   177.2766       351.42479     -2342.4329      7.7222873     -2334.7106     -8756.6151    
      7950   180.04505      356.91284     -2342.5875      7.8428829     -2334.7446     -12826.669    
      8000   184.26593      365.2801      -2342.8135      8.026747      -2334.7867     -10513.021    
      8050   173.73054      344.39525     -2342.3825      7.5678185     -2334.8147     -10713.562    
      8100   169.51837      336.04524     -2342.2373      7.3843336     -2334.853      -12779.416    
      8150   169.88511      336.77224     -2341.9527      7.4003089     -2334.5524     -12449.781    
      8200   175.32752      347.56102     -2342.2317      7.6373839     -2334.5943     -9375.2572    
      8250   183.17579      363.11906     -2342.6196      7.9792598     -2334.6403     -11370.82     
      8300   188.75373      374.17652     -2342.9103      8.2222388     -2334.6881     -13061.807    
      8350   180.98615      358.77842     -2342.6151      7.8838776     -2334.7312     -12581.124    
      8400   182.99434      362.75938     -2342.7236      7.971356      -2334.7522     -13406.116    
      8450   169.32479      335.6615      -2342.1674      7.3759012     -2334.7915     -9945.5772    
      8500   154.01363      305.30936     -2341.5416      6.7089365     -2334.8327     -15740.615    
      8550   159.93587      317.04934     -2341.8475      6.9669134     -2334.8806     -13028.391    
      8600   150.95988      299.25577     -2341.4904      6.5759135     -2334.9145     -11237.575    
      8650   153.97008      305.22304     -2341.6634      6.7070396     -2334.9564     -11829.12     
      8700   185.31159      367.35298     -2343.0727      8.0722969     -2335.0004     -13913.097    
      8750   175.88821      348.67251     -2342.7014      7.661808      -2335.0396     -11542.139    
      8800   156.57177      310.3805      -2341.894       6.8203709     -2335.0736     -12971.269    
      8850   168.42478      333.87735     -2342.452       7.336696      -2335.1153     -17071.76     
      8900   165.14201      327.36975     -2342.3445      7.1936965     -2335.1508     -10264.394    
      8950   148.20072      293.78614     -2341.6314      6.4557226     -2335.1757     -13390.145    
      9000   170.91693      338.81768     -2342.6694      7.4452557     -2335.2242     -14024.376    
      9050   180.88169      358.57135     -2342.8886      7.8793273     -2335.0092     -13507.574    
      9100   181.70056      360.19465     -2342.9574      7.9149981     -2335.0424     -9411.98      
      9150   167.65437      332.35013     -2342.3742      7.3031365     -2335.071      -15291.72     
      9200   180.37597      357.56884     -2342.9753      7.857298      -2335.118      -13184.968    
      9250   156.28771      309.8174      -2341.961       6.8079972     -2335.153      -11470.461    
      9300   159.18171      315.55434     -2342.1218      6.9340619     -2335.1877     -11020.78     
      9350   162.69849      322.52584     -2342.3134      7.0872553     -2335.2262     -11541.253    
      9400   162.55277      322.23696     -2342.3396      7.0809073     -2335.2587     -12337.277    
      9450   174.88437      346.68254     -2342.9237      7.61808       -2335.3056     -11840.018    
      9500   175.25561      347.41848     -2342.9729      7.6342517     -2335.3386     -11254.518    
      9550   171.06972      339.12056     -2342.8199      7.4519114     -2335.368      -10040.159    
      9600   171.88915      340.74496     -2342.8935      7.4876062     -2335.4059     -14349.644    
      9650   177.43948      351.74767     -2343.1959      7.7293824     -2335.4665     -10680.609    
      9700   150.43554      298.21633     -2342.0495      6.5530726     -2335.4964     -8897.668     
      9750   166.82604      330.70809     -2342.7634      7.2670539     -2335.4963     -12672.512    
      9800   170.59993      338.18926     -2342.9641      7.4314469     -2335.5327     -10545.992    
      9850   159.97647      317.12983     -2342.5385      6.9686822     -2335.5698     -10807.914    
      9900   158.58772      314.37682     -2342.5159      6.9081869     -2335.6078     -15454.572    
      9950   175.36596      347.63723     -2343.2899      7.6390587     -2335.6508     -14197.437    
     10000   177.82516      352.51222     -2343.4445      7.7461828     -2335.6983     -8734.5828    
     10050   164.37321      325.84572     -2342.8843      7.1602071     -2335.7241     -10876.601    
     10100   172.48067      341.91756     -2343.2611      7.5133733     -2335.7477     -13088.384    
     10150   177.78099      352.42467     -2343.5379      7.7442589     -2335.7936     -8821.1238    
     10200   166.95778      330.96924     -2343.1045      7.2727925     -2335.8317     -9229.5144    
     10250   175.4548       347.81334     -2343.5149      7.6429284     -2335.872      -11622.956    
     10300   165.4592       327.99854     -2343.1132      7.2075135     -2335.9056     -10052.354    
     10350   169.31051      335.63318     -2343.3145      7.3752788     -2335.9392     -13145.159    
     10400   146.9123       291.23203     -2342.366       6.3995981     -2335.9664     -11119.71     
     10450   158.69935      314.59813     -2342.9176      6.91305       -2336.0046     -12131.071    
     10500   160.41244      317.99407     -2343.026       6.9876732     -2336.0383     -13682.603    
     10550   165.46378      328.0076      -2343.2827      7.2077128     -2336.075      -11190.821    
     10600   146.82347      291.05593     -2342.4997      6.3957284     -2336.1039     -10730.533    
     10650   167.58953      332.2216      -2343.4482      7.3003121     -2336.1479     -10780.853    
     10700   163.51844      324.15126     -2343.3003      7.1229727     -2336.1774     -16809.023    
     10750   151.09271      299.51908     -2342.7905      6.5816996     -2336.2088     -10896.635    
     10800   157.48901      312.19881     -2343.0944      6.8603267     -2336.234      -11688.461    
     10850   159.05635      315.30582     -2343.1955      6.9286009     -2336.2669     -13204.761    
     10900   158.13323      313.47587     -2343.1846      6.8883891     -2336.2962     -9614.3098    
     10950   164.20402      325.51031     -2343.4759      7.1528368     -2336.323      -11003.06     
     11000   164.97927      327.04714     -2343.5399      7.1866074     -2336.3533     -10638.202    
     11050   155.68799      308.62855     -2343.1774      6.7818731     -2336.3956     -12166.762    
     11100   162.28916      321.71439     -2343.5042      7.0694243     -2336.4347     -10700.97     
     11150   154.85628      306.97981     -2343.2073      6.7456433     -2336.4617     -13379.34     
     11200   159.90915      316.99638     -2343.4637      6.9657497     -2336.4979     -11314.263    
     11250   148.84218      295.05774     -2343.0063      6.483665      -2336.5226     -13345.377    
     11300   157.17685      311.57998     -2343.3982      6.8467286     -2336.5515     -9414.6078    
     11350   162.65428      322.43819     -2343.6729      7.0853292     -2336.5876     -13602.764    
     11400   165.47519      328.03022     -2343.3773      7.2082099     -2336.1691     -12251.717    
     11450   172.42335      341.80394     -2343.7177      7.5108766     -2336.2069     -10393.661    
     11500   161.86078      320.8652      -2343.2836      7.0507639     -2336.2328     -12387.307    
     11550   158.63513      314.47082     -2343.1796      6.9102525     -2336.2694     -12460.609    
     11600   163.95971      325.02601     -2343.3384      7.1421946     -2336.1962     -13112.208    
     11650   164.57623      326.24816     -2343.3973      7.1690504     -2336.2282     -11146.027    
     11700   163.05427      323.2311      -2343.3616      7.1027529     -2336.2589     -11383.626    
     11750   165.3097       327.70217     -2343.4818      7.2010011     -2336.2808     -12654.608    
     11800   158.02286      313.25708     -2343.1891      6.8835815     -2336.3055     -13999.846    
     11850   162.05417      321.24856     -2343.3809      7.059188      -2336.3217     -12850.914    
     11900   162.79216      322.71152     -2343.4483      7.0913355     -2336.357      -11847.446    
     11950   160.94544      319.05067     -2343.4089      7.010891      -2336.398      -12107.546    
     12000   159.01109      315.21611     -2343.3511      6.9266295     -2336.4245     -13441.44     
     12050   169.85505      336.71266     -2343.8628      7.3989997     -2336.4638     -11318.698    
     12100   157.11131      311.45007     -2343.3363      6.8438739     -2336.4924     -11965.48     
     12150   162.82365      322.77395     -2343.5971      7.0927072     -2336.5044     -13989.219    
     12200   173.59617      344.12889     -2344.0998      7.5619655     -2336.5378     -8244.0418    
     12250   163.5591       324.23187     -2343.696       7.124744      -2336.5712     -10964.844    
     12300   168.94544      334.90949     -2343.9638      7.3593765     -2336.6044     -12633.653    
     12350   171.56695      340.10625     -2344.1172      7.4735711     -2336.6437     -11580.558    
     12400   172.64163      342.23665     -2344.1705      7.5203849     -2336.6502     -14225.464    
     12450   149.46538      296.29314     -2343.1982      6.5108119     -2336.6874     -8669.9216    
     12500   167.42755      331.9005      -2344.0163      7.2932561     -2336.723      -11741.07     
     12550   153.42021      304.13301     -2343.4273      6.6830871     -2336.7442     -14532.882    
     12600   164.74898      326.59063     -2343.955       7.176576      -2336.7784     -10818.424    
     12650   161.08632      319.32994     -2343.8213      7.0170278     -2336.8043     -13531.132    
     12700   167.79581      332.63053     -2343.9866      7.3092979     -2336.6773     -7927.1778    
     12750   172.60737      342.16873     -2344.2302      7.5188926     -2336.7113     -11244.904    
     12800   152.31445      301.941       -2343.3718      6.6349193     -2336.7369     -12467.577    
     12850   163.269        323.65679     -2343.879       7.1121069     -2336.7669     -11121.643    
     12900   154.39535      306.06608     -2343.503       6.7255647     -2336.7774     -12062.024    
     12950   166.40906      329.88149     -2344.0594      7.2488901     -2336.8105     -15058.987    
     13000   157.89629      313.00618     -2343.7185      6.878068      -2336.8405     -11878.794    
     13050   171.48532      339.94443     -2344.3456      7.4700152     -2336.8755     -11650.316    
     13100   165.81184      328.6976      -2344.1208      7.2228748     -2336.898      -11113.967    
     13150   165.26925      327.62198     -2344.115       7.1992389     -2336.9158     -14669.745    
     13200   164.1132       325.33029     -2344.0846      7.1488809     -2336.9357     -10645.272    
     13250   170.30614      337.60689     -2344.3851      7.4186495     -2336.9665     -13511.282    
     13300   158.61691      314.43471     -2343.9046      6.9094588     -2336.9951     -12578.672    
     13350   158.41676      314.03793     -2343.8372      6.9007401     -2336.9365     -11911.9      
     13400   164.83199      326.75517     -2344.1551      7.1801916     -2336.9749     -13876.762    
     13450   161.36033      319.87313     -2344.0353      7.028964      -2337.0064     -11117.331    
     13500   171.98129      340.92762     -2344.5437      7.4916201     -2337.0521     -11906.319    
     13550   146.81859      291.04625     -2343.6819      6.3955158     -2337.2864     -12008.035    
     13600   154.57749      306.42715     -2343.9119      6.733499      -2337.1784     -6713.2462    
     13650   153.04951      303.39814     -2343.8779      6.666939      -2337.211      -10299.231    
     13700   137.78179      273.13214     -2343.2366      6.001867      -2337.2347     -10941.676    
     13750   152.93941      303.1799      -2343.924       6.6621431     -2337.2618     -9982.3575    
     13800   168.3272       333.68393     -2344.6295      7.3324455     -2337.2971     -12658.269    
     13850   164.82153      326.73445     -2344.5107      7.1797361     -2337.331      -9337.1364    
     13900   158.61433      314.42959     -2344.0449      6.9093464     -2337.1355     -9031.9392    
     13950   155.20589      307.67284     -2343.924       6.7608722     -2337.1631     -11606.308    
     14000   149.90172      297.15811     -2343.727       6.5298191     -2337.1971     -8883.3244    
     14050   155.22451      307.70976     -2343.9876      6.7616834     -2337.2259     -10148.499    
     14100   155.0386       307.34123     -2344.0065      6.7535852     -2337.253      -11814.364    
     14150   160.03979      317.25536     -2344.2449      6.9714405     -2337.2735     -13523.795    
     14200   151.97115      301.26046     -2343.9127      6.6199651     -2337.2928     -16123.513    
     14250   153.30911      303.91277     -2343.9983      6.6782474     -2337.3201     -11900.451    
     14300   160.29579      317.76283     -2344.3442      6.9825919     -2337.3617     -10837.699    
     14350   172.2948       341.5491      -2344.8885      7.5052766     -2337.3832     -8596.0982    
     14400   145.27866      287.99358     -2343.6164      6.3284356     -2337.2879     -11968.012    
     14450   170.09174      337.18186     -2344.7348      7.40931       -2337.3255     -10550.399    
     14500   167.25507      331.55858     -2344.6319      7.2857427     -2337.3462     -12640.655    
     14550   158.20696      313.62204     -2344.2634      6.8916011     -2337.3718     -8667.9271    
     14600   154.35198      305.9801      -2344.1232      6.7236755     -2337.3996     -11950.549    
     14650   147.71429      292.82186     -2343.8527      6.4345333     -2337.4182     -10834.084    
     14700   160.79238      318.74725     -2344.4511      7.0042238     -2337.4469     -13369.975    
     14750   171.37817      339.73202     -2344.9467      7.4653478     -2337.4814     -11439.143    
     14800   162.59115      322.31304     -2344.5908      7.082579      -2337.5082     -11272.835    
     14850   157.91396      313.04121     -2344.4123      6.8788378     -2337.5335     -8787.4845    
     14900   154.17146      305.62224     -2344.2113      6.7158118     -2337.4955     -12083.954    
     14950   158.15578      313.52057     -2344.4099      6.8893715     -2337.5206     -12213.081    
     15000   150.446        298.23707     -2344.1002      6.5535283     -2337.5467     -11124.32     
     15050   164.95382      326.9967      -2344.7609      7.1854989     -2337.5754     -13265.325    
     15100   142.49308      282.47157     -2343.8057      6.2070937     -2337.5986     -10197.545    
     15150   152.68936      302.6842      -2344.2715      6.6512506     -2337.6202     -11011.783    
     15200   148.64169      294.66028     -2344.1272      6.4749313     -2337.6523     -10036.521    
     15250   144.39702      286.24586     -2343.9596      6.2900309     -2337.6696     -11066.263    
     15300   151.0278       299.39041     -2344.2743      6.5788721     -2337.6954     -10736.776    
     15350   154.43713      306.14891     -2344.4488      6.7273848     -2337.7214     -12088.292    
     15400   150.34028      298.0275      -2344.289       6.5489232     -2337.7401     -10327.939    
     15450   150.05395      297.45989     -2344.144       6.5364505     -2337.6076     -7356.0744    
     15500   164.27931      325.65958     -2344.7796      7.1561168     -2337.6235     -12804.129    
     15550   153.3071       303.90877     -2344.3453      6.6781597     -2337.6672     -11363.97     
     15600   160.98971      319.13842     -2344.7074      7.0128193     -2337.6946     -11670.966    
     15650   153.87334      305.03128     -2344.4257      6.7028258     -2337.7228     -9373.7173    
     15700   160.93839      319.03668     -2344.7557      7.0105837     -2337.7452     -11529.606    
     15750   146.41768      290.25152     -2344.1449      6.3780522     -2337.7669     -9349.5372    
     15800   155.12033      307.50325     -2344.5458      6.7571455     -2337.7887     -7844.0828    
     15850   147.64637      292.68722     -2344.2403      6.4315747     -2337.8087     -13197.284    
     15900   155.43924      308.13543     -2344.6071      6.7710372     -2337.8361     -9397.8447    
     15950   149.60562      296.57115     -2344.3678      6.516921      -2337.8509     -7533.5277    
     16000   159.02275      315.23922     -2344.7598      6.9271375     -2337.8326     -11294.799    
     16050   162.27202      321.68041     -2344.9302      7.0686776     -2337.8615     -8653.6397    
     16100   148.47413      294.32813     -2344.346       6.4676325     -2337.8783     -10353.395    
     16150   154.87612      307.01913     -2344.6526      6.7465074     -2337.9061     -10003.977    
     16200   156.27294      309.78812     -2344.6847      6.8073537     -2337.8774     -12320.372    
     16250   158.14856      313.50626     -2344.7355      6.8890569     -2337.8464     -10620.931    
     16300   153.98863      305.25982     -2344.5661      6.7078478     -2337.8583     -9090.8054    
     16350   139.72066      276.97565     -2343.9713      6.0863252     -2337.8849     -11078.495    
     16400   150.59687      298.53616     -2344.4655      6.5601006     -2337.9054     -12119.961    
     16450   160.62298      318.41144     -2344.8622      6.9968444     -2337.8654     -11893.585    
     16500   149.59913      296.55827     -2344.4016      6.516638      -2337.885      -10059.07     
     16550   159.56188      316.30797     -2344.8495      6.9506223     -2337.8989     -11800.692    
     16600   140.37277      278.26837     -2344.0364      6.1147318     -2337.9217     -13073.498    
     16650   141.72618      280.95131     -2344.1201      6.1736873     -2337.9464     -12060.63     
     16700   161.86046      320.86457     -2345.0185      7.0507501     -2337.9678     -11388.72     
     16750   146.12599      289.67329     -2344.3968      6.3653461     -2338.0315     -12067.733    
     16800   137.93552      273.43688     -2344.0851      6.0085635     -2338.0765     -11729.476    
     16850   144.60366      286.65549     -2344.3974      6.2990321     -2338.0984     -8716.8017    
     16900   139.43151      276.40247     -2344.1768      6.07373       -2338.103      -12433.258    
     16950   150.64093      298.62349     -2344.6343      6.5620196     -2338.0723     -10461.893    
     17000   146.15361      289.72804     -2344.451       6.366549      -2338.0845     -11321.557    
     17050   149.97905      297.31142     -2344.6291      6.5331879     -2338.0959     -11813.841    
     17100   147.64446      292.68343     -2344.5486      6.4314914     -2338.1171     -9961.0822    
     17150   151.69866      300.72028     -2344.7726      6.608095      -2338.1645     -10375.219    
     17200   144.94971      287.34149     -2344.5057      6.3141064     -2338.1916     -12221.103    
     17250   149.38606      296.1359      -2344.0471      6.5073568     -2337.5398     -9144.8736    
     17300   148.21457      293.8136      -2344.0189      6.4563259     -2337.5626     -10445.457    
     17350   145.58549      288.60183     -2343.919       6.3418015     -2337.5772     -10152.549    
     17400   150.98887      299.31323     -2344.172       6.5771762     -2337.5948     -9747.4057    
     17450   149.2161       295.79897     -2344.1099      6.4999531     -2337.6099     -15063.02     
     17500   154.62559      306.52249     -2344.3688      6.7355941     -2337.6332     -10599.011    
     17550   153.76803      304.82251     -2344.3495      6.6982384     -2337.6513     -11619.362    
     17600   140.55066      278.62101     -2343.7778      6.1224807     -2337.6554     -11553.997    
     17650   149.69402      296.74639     -2344.2024      6.5207717     -2337.6817     -10261.894    
     17700   155.29169      307.84294     -2344.4598      6.76461       -2337.6952     -9271.9829    
     17750   157.17084      311.56807     -2344.6028      6.8464669     -2337.7564     -10582.73     
     17800   161.31765      319.78851     -2344.8051      7.0271047     -2337.778      -10948.387    
     17850   163.18078      323.4819      -2344.9049      7.1082639     -2337.7966     -8444.1378    
     17900   158.01535      313.2422      -2344.6026      6.8832544     -2337.7194     -10333.566    
     17950   143.21664      283.90593     -2343.9727      6.2386128     -2337.7341     -11326.058    
     18000   146.08549      289.59301     -2344.1194      6.3635818     -2337.7558     -9883.8056    
     18050   158.42535      314.05496     -2344.6807      6.9011143     -2337.7796     -10041.911    
     18100   147.32342      292.04702     -2344.2055      6.4175068     -2337.788      -8303.319     
     18150   156.78217      310.79759     -2344.667       6.829536      -2337.8374     -11667.106    
     18200   148.88638      295.14536     -2344.3413      6.4855904     -2337.8557     -10638.791    
     18250   160.82613      318.81414     -2344.8885      7.0056936     -2337.8828     -11880.479    
     18300   152.69922      302.70374     -2344.5033      6.6516801     -2337.8516     -10654.324    
     18350   156.99135      311.21227     -2344.6742      6.8386484     -2337.8355     -9311.878     
     18400   157.2379       311.701       -2344.7066      6.8493879     -2337.8572     -11182.498    
     18450   149.8484       297.05241     -2344.4008      6.5274965     -2337.8733     -11631.782    
     18500   144.22945      285.91367     -2344.1607      6.2827312     -2337.878      -11879.52     
     18550   152.58412      302.47558     -2344.5838      6.6466663     -2337.9371     -13209.333    
     18600   159.07033      315.33354     -2344.3462      6.9292101     -2337.417      -11504.813    
     18650   156.50094      310.24011     -2344.204       6.8172858     -2337.3867     -12647.708    
     18700   154.58237      306.43682     -2344.1355      6.7337116     -2337.4018     -11703.15     
     18750   156.18265      309.60913     -2344.2217      6.8034206     -2337.4183     -13919.154    
     18800   167.55986      332.16278     -2344.7021      7.2990196     -2337.4031     -4367.6989    
     18850   167.26244      331.57319     -2344.7088      7.2860638     -2337.4228     -11905.3      
     18900   152.42207      302.15433     -2344.0753      6.6396072     -2337.4357     -13104.084    
     18950   158.33385      313.87357     -2344.3414      6.8971283     -2337.4442     -10053.921    
     19000   157.23867      311.70254     -2344.3373      6.8494216     -2337.4879     -10397.138    
     19050   146.55207      290.51792     -2343.884       6.3839061     -2337.5001     -12567.364    
     19100   143.16979      283.81305     -2343.7632      6.2365717     -2337.5266     -9930.6624    
     19150   154.21458      305.70772     -2344.261       6.7176901     -2337.5433     -9129.2968    
     19200   149.28612      295.93779     -2344.0658      6.5030034     -2337.5628     -7759.1822    
     19250   148.2752       293.93378     -2344.0329      6.458967      -2337.5739     -10433.184    
     19300   146.21425      289.84824     -2343.8403      6.3691904     -2337.4712     -12519.166    
     19350   145.79417      289.01551     -2343.8439      6.3508917     -2337.493      -11034.672    
     19400   147.79094      292.97381     -2343.9435      6.4378723     -2337.5057     -9380.6605    
     19450   145.10748      287.65424     -2343.8453      6.320979      -2337.5243     -12852.803    
     19500   144.5264       286.50234     -2343.8364      6.2956668     -2337.5407     -9816.7448    
     19550   148.56171      294.50174     -2344.0315      6.4714473     -2337.5601     -11280.629    
     19600   146.85249      291.11347     -2343.9988      6.3969928     -2337.6018     -10912.794    
     19650   150.16232      297.67472     -2344.1341      6.5411713     -2337.5929     -9687.1678    
     19700   157.10935      311.44619     -2344.4557      6.8437885     -2337.612      -9496.6163    
     19750   157.45702      312.13539     -2344.4907      6.8589331     -2337.6318     -8990.2901    
     19800   160.76696      318.69685     -2344.6489      7.0031162     -2337.6458     -11776.075    
     19850   157.33064      311.88486     -2344.5117      6.853428      -2337.6583     -11143.56     
     19900   151.96903      301.25625     -2344.2913      6.6198725     -2337.6715     -12736.7      
     19950   151.71501      300.7527      -2344.2932      6.6088074     -2337.6844     -8449.4498    
     20000   153.11423      303.52644     -2344.3754      6.6697582     -2337.7056     -12456.109    
     20050   144.49224      286.43463     -2344.0424      6.2941788     -2337.7483     -9495.9044    
     20100   149.14316      295.65437     -2344.2433      6.4967757     -2337.7465     -8758.1115    
     20150   142.42356      282.33377     -2343.9632      6.2040656     -2337.7591     -12839.708    
     20200   141.38306      280.27113     -2343.9595      6.1587409     -2337.8007     -14390.416    
     20250   140.32739      278.17842     -2343.9962      6.112755      -2337.8834     -14389.564    
     20300   136.50552      270.60211     -2343.8391      5.9462716     -2337.8928     -11864.723    
     20350   135.7715       269.14703     -2343.8314      5.9142972     -2337.9171     -11864.65     
     20400   146.59948      290.61191     -2344.3091      6.3859715     -2337.9231     -15393.155    
     20450   141.42519      280.35464     -2344.0987      6.1605757     -2337.9381     -12177.43     
     20500   136.82771      271.24081     -2343.9067      5.9603066     -2337.9464     -11715.13     
     20550   149.88379      297.12257     -2344.4877      6.5290381     -2337.9587     -11825.427    
     20600   136.51834      270.62754     -2343.9066      5.9468304     -2337.9598     -13579.674    
     20650   140.8898       279.2933      -2344.1079      6.1372537     -2337.9706     -13146.645    
     20700   147.94894      293.28701     -2344.4238      6.4447546     -2337.979      -12460.609    
     20750   141.80693      281.11139     -2344.1603      6.1772048     -2337.9831     -14392.659    
     20800   138.04322      273.65037     -2343.9779      6.0132548     -2337.9646     -11745.145    
     20850   140.01032      277.54988     -2344.0685      6.0989433     -2337.9695     -12015.896    
     20900   147.95515      293.29932     -2344.4455      6.4450251     -2338.0004     -12270.534    
     20950   154.70372      306.67737     -2344.7638      6.7389975     -2338.0248     -9605.1217    
     21000   145.34581      288.1267      -2343.8725      6.3313609     -2337.5411     -11490.499    
     21050   145.32765      288.0907      -2343.8762      6.3305697     -2337.5456     -10948.913    
     21100   153.27857      303.85222     -2344.2314      6.6769169     -2337.5545     -7886.9556    
     21150   145.24203      287.92097     -2343.8812      6.3268401     -2337.5544     -11928.127    
     21200   159.85335      316.88576     -2344.3828      6.9633188     -2337.4195     -10686.947    
     21250   151.60064      300.52598     -2344.0292      6.6038254     -2337.4254     -9319.318     
     21300   156.71177      310.65804     -2344.2644      6.8264696     -2337.4379     -13277.572    
     21350   164.21674      325.53553     -2344.5949      7.1533908     -2337.4415     -11051.241    
     21400   151.57952      300.48411     -2344.0518      6.6029053     -2337.4489     -8976.8247    
     21450   153.0963       303.49089     -2344.158       6.6689771     -2337.4891     -9175.6651    
     21500   159.08069      315.35408     -2344.424       6.9296615     -2337.4943     -12313.954    
     21550   143.21683      283.90631     -2343.7375      6.238621      -2337.4989     -8707.2466    
     21600   150.02322      297.39896     -2344.0364      6.5351116     -2337.5013     -13905.841    
     21650   153.69643      304.68056     -2343.9457      6.6951191     -2337.2506     -12586.256    
     21700   149.34154      296.04765     -2343.7666      6.5054175     -2337.2612     -9557.6514    
     21750   154.50045      306.27443     -2344.0018      6.7301431     -2337.2717     -10225.177    
     21800   160.85398      318.86937     -2344.2837      7.0069071     -2337.2768     -13229.846    
     21850   152.11344      301.54252     -2343.903       6.6261631     -2337.2768     -11283.636    
     21900   161.95597      321.05389     -2344.2748      7.0549103     -2337.2199     -12555.82     
     21950   141.083        279.67629     -2343.3836      6.1456697     -2337.2379     -11367.898    
     22000   140.94917      279.411       -2343.3795      6.1398401     -2337.2397     -11258.251    
     22050   145.91562      289.25627     -2343.6067      6.3561822     -2337.2506     -9361.8529    
     22100   153.51923      304.32929     -2343.941       6.6874003     -2337.2536     -8441.3934    
     22150   149.28602      295.93758     -2343.8421      6.5029989     -2337.3391     -9733.8994    
     22200   159.93731      317.0522      -2344.2767      6.9669762     -2337.3097     -11464.057    
     22250   152.85921      303.02091     -2343.9796      6.6586495     -2337.3209     -10646.962    
     22300   149.53583      296.43279     -2343.8373      6.5138807     -2337.3234     -9112.9128    
     22350   160.66018      318.48519     -2344.2646      6.998465      -2337.2662     -10237.978    
     22400   162.76175      322.65122     -2344.3682      7.0900105     -2337.2782     -11998.624    
     22450   150.05807      297.46805     -2343.8209      6.5366297     -2337.2843     -11385.198    
     22500   156.01267      309.27218     -2344.0891      6.7960163     -2337.2931     -15256.435    
     22550   151.82303      300.96682     -2343.9217      6.6135125     -2337.3082     -7712.6529    
     22600   174.6893       346.29585     -2344.881       7.6095828     -2337.2714     -8810.54      
     22650   162.30178      321.73941     -2344.2887      7.069974      -2337.2188     -8980.0142    
     22700   157.9154       313.04406     -2344.1165      6.8789005     -2337.2376     -11053.989    
     22750   161.41373      319.97899     -2344.2829      7.0312902     -2337.2516     -8351.3475    
     22800   158.19887      313.60599     -2344.1933      6.8912485     -2337.3021     -13467.362    
     22850   158.67198      314.54386     -2344.2255      6.9118575     -2337.3136     -13538.6      
     22900   152.06601      301.4485      -2343.9564      6.6240971     -2337.3323     -10921.896    
     22950   164.54443      326.18513     -2344.5231      7.1676654     -2337.3554     -14291.852    
     23000   150.62707      298.59602     -2343.9226      6.5614161     -2337.3611     -12438.891    
     23050   140.4873       278.49541     -2343.2182      6.1197208     -2337.0985     -13189.532    
     23100   139.32636      276.19402     -2343.1283      6.0691494     -2337.0592     -9757.7201    
     23150   147.08959      291.58347     -2343.4953      6.4073207     -2337.088      -13869.941    
     23200   144.19554      285.84646     -2343.4298      6.2812544     -2337.1485     -11717.361    
     23250   156.6582       310.55185     -2343.9193      6.824136      -2337.0951     -12678.22     
     23300   161.19973      319.55476     -2344.1372      7.0219682     -2337.1152     -10855.312    
     23350   159.51722      316.21944     -2344.094       6.948677      -2337.1454     -11489.184    
     23400   154.19146      305.66189     -2343.8819      6.716683      -2337.1653     -13645.293    
     23450   156.63944      310.51465     -2343.8294      6.8233186     -2337.0061     -9634.6782    
     23500   168.57296      334.1711      -2344.3729      7.3431509     -2337.0297     -9910.1321    
     23550   147.64959      292.69359     -2343.4777      6.4317148     -2337.0459     -10197.036    
     23600   144.97197      287.38562     -2343.3799      6.3150762     -2337.0648     -12552.308    
     23650   158.64926      314.49882     -2344.0001      6.9108678     -2337.0892     -10127.159    
     23700   146.31523      290.04843     -2343.5654      6.3735893     -2337.1918     -13552.098    
     23750   150.8445       299.02704     -2343.6024      6.5708873     -2337.0315     -10330.049    
     23800   147.49781      292.39273     -2343.4729      6.4251034     -2337.0478     -12380.395    
     23850   151.65794      300.63956     -2343.6768      6.6063211     -2337.0705     -11529.051    
     23900   151.00853      299.35221     -2343.6662      6.5780327     -2337.0881     -13604.343    
     23950   161.86517      320.87389     -2344.1662      7.0509549     -2337.1152     -10645.008    
     24000   160.23808      317.64842     -2344.1797      6.9800777     -2337.1996     -13592.775    
     24050   142.95339      283.38408     -2343.3924      6.2271454     -2337.1653     -9753.8771    
     24100   144.20027      285.85583     -2343.4732      6.2814601     -2337.1918     -8675.7653    
     24150   154.27894      305.83531     -2343.9356      6.7204939     -2337.2151     -11682.83     
     24200   151.2731       299.87668     -2343.8273      6.5895576     -2337.2377     -10741.914    
     24250   149.93167      297.21749     -2343.7022      6.5311238     -2337.171      -10493.545    
     24300   157.40284      312.02799     -2344.0693      6.8565731     -2337.2127     -12557.222    
     24350   150.50496      298.35395     -2343.7953      6.5560966     -2337.2392     -9869.3993    
     24400   148.75326      294.88147     -2343.7388      6.4797917     -2337.259      -12373.227    
     24450   163.69585      324.50295     -2344.4181      7.1307006     -2337.2874     -11579.079    
     24500   150.37445      298.09524     -2343.8503      6.5504118     -2337.2998     -8890.9955    
     24550   143.57988      284.626       -2343.5799      6.2544357     -2337.3255     -12658.111    
     24600   144.05448      285.56682     -2343.6302      6.2751094     -2337.3551     -10276.335    
     24650   147.64317      292.68088     -2343.8038      6.4314353     -2337.3724     -6375.1905    
     24700   159.79605      316.77216     -2344.2814      6.9608227     -2337.3206     -14214.805    
     24750   165.08408      327.25492     -2344.252       7.1911731     -2337.0608     -10063.277    
     24800   160.95358      319.0668      -2344.1066      7.0112456     -2337.0954     -10722.55     
     24850   164.66425      326.42265     -2344.3047      7.1728847     -2337.1318     -11918.099    
     24900   148.95535      295.28208     -2343.6448      6.4885948     -2337.1562     -11200.339    
     24950   144.82438      287.09304     -2343.4857      6.308647      -2337.177      -10186.866    
     25000   147.17101      291.74488     -2343.6115      6.4108676     -2337.2007     -8903.9124    
     25050   144.84407      287.13207     -2343.5287      6.3095046     -2337.2192     -13105.479    
     25100   162.81773      322.76221     -2344.336       7.0924493     -2337.2435     -10878.827    
     25150   139.12965      275.80407     -2343.3153      6.0605805     -2337.2547     -12111.007    
     25200   145.96878      289.36164     -2343.6311      6.3584977     -2337.2726     -11405.227    
     25250   140.68869      278.89464     -2343.4203      6.1284935     -2337.2918     -13274.217    
     25300   146.79208      290.99372     -2343.709       6.3943613     -2337.3146     -10531.626    
     25350   149.16659      295.70083     -2343.8358      6.4977965     -2337.338      -10666.204    
     25400   155.99959      309.24624     -2344.1493      6.7954463     -2337.3538     -10605.275    
     25450   150.89452      299.1262      -2343.9457      6.5730663     -2337.3726     -14517.583    
     25500   138.99023      275.52769     -2343.4422      6.0545074     -2337.3877     -13581.62     
     25550   152.69609      302.69753     -2343.9081      6.6515436     -2337.2565     -10474.42     
     25600   150.66373      298.66869     -2343.8352      6.5630129     -2337.2722     -12679.906    
     25650   140.8954       279.30442     -2343.4374      6.137498      -2337.2999     -9851.7454    
     25700   160.60247      318.37078     -2344.3167      6.995951      -2337.3207     -12778.59     
     25750   144.06041      285.57857     -2343.608       6.2753676     -2337.3326     -13193.818    
     25800   164.15778      325.41866     -2344.4926      7.1508228     -2337.3418     -13038.866    
     25850   153.2429       303.78151     -2344.0171      6.6753631     -2337.3417     -12016.894    
     25900   147.03782      291.48085     -2343.7272      6.4050658     -2337.3221     -10222.943    
     25950   160.84027      318.84218     -2344.3492      7.0063098     -2337.3429     -13477.959    
     26000   147.3555       292.11061     -2343.7553      6.4189041     -2337.3364     -12602.757    
     26050   144.3036       286.06067     -2343.5274      6.2859614     -2337.2414     -12579.974    
     26100   152.43538      302.18073     -2343.933       6.6401873     -2337.2928     -9263.4329    
     26150   161.44069      320.03242     -2344.319       7.0324644     -2337.2865     -12417.132    
     26200   143.03056      283.53705     -2343.5242      6.2305068     -2337.2937     -13958.636    
     26250   160.24255      317.65729     -2344.2904      6.9802727     -2337.3101     -11282.171    
     26300   159.77646      316.73334     -2344.1073      6.9599696     -2337.1473     -13436.326    
     26350   154.72621      306.72195     -2343.8913      6.7399771     -2337.1513     -11079.367    
     26400   166.02223      329.11465     -2344.3965      7.2320393     -2337.1645     -9363.7743    
     26450   150.25702      297.86245     -2343.7169      6.5452964     -2337.1716     -9139.2865    
     26500   156.19647      309.63653     -2343.8944      6.8040227     -2337.0904     -11601.117    
     26550   160.88637      318.93356     -2344.057       7.0083177     -2337.0487     -11310.555    
     26600   144.86039      287.16442     -2343.3688      6.3102155     -2337.0586     -6436.8962    
     26650   142.24975      281.98921     -2343.2522      6.1964942     -2337.0557     -9123.0488    
     26700   150.07961      297.51076     -2343.6079      6.5375683     -2337.0703     -9110.4865    
     26750   144.40353      286.25877     -2343.3151      6.2903145     -2337.0248     -11988.916    
     26800   151.14256      299.6179      -2343.6156      6.583871      -2337.0317     -8790.3603    
     26850   160.97358      319.10645     -2344.0584      7.0121169     -2337.0463     -7564.8315    
     26900   160.5837       318.33356     -2344.0354      6.9951332     -2337.0402     -10326.543    
     26950   164.05833      325.2215      -2344.2023      7.1464904     -2337.0558     -10203.623    
     27000   150.80097      298.94074     -2343.6284      6.5689909     -2337.0594     -10284.071    
     27050   167.98118      332.99799     -2344.3853      7.3173726     -2337.068      -8817.8755    
     27100   150.07727      297.50611     -2343.6056      6.5374662     -2337.0682     -10228.748    
     27150   153.22607      303.74815     -2343.7568      6.67463       -2337.0821     -9566.8979    
     27200   158.97705      315.14862     -2344.0257      6.9251465     -2337.1005     -7915.839     
     27250   157.65811      312.53401     -2343.978       6.8676926     -2337.1103     -11888.921    
     27300   166.80034      330.65714     -2344.3874      7.2659342     -2337.1214     -9369.4805    
     27350   159.3325       315.85325     -2344.0095      6.9406304     -2337.0689     -10763.825    
     27400   159.60463      316.39272     -2344.0296      6.9524846     -2337.0771     -13377.259    
     27450   145.57479      288.58062     -2343.4098      6.3413353     -2337.0685     -10669.297    
     27500   160.37232      317.91453     -2344.0757      6.9859253     -2337.0898     -12438.835    
     27550   158.6962       314.59189     -2344.0012      6.9129128     -2337.0883     -11110.53     
     27600   158.14365      313.49653     -2343.984       6.8888432     -2337.0952     -8710.3355    
     27650   160.78025      318.7232      -2343.7866      7.0036953     -2336.7829     -12765.588    
     27700   157.5075       312.23545     -2343.6426      6.861132      -2336.7815     -12412.801    
     27750   154.73577      306.74091     -2343.6387      6.7403936     -2336.8983     -7007.1083    
     27800   150.4157       298.17701     -2343.4605      6.5522087     -2336.9083     -10626.451    
     27850   174.47681      345.87462     -2344.5229      7.6003267     -2336.9225     -9549.2144    
     27900   155.87288      308.99506     -2343.7209      6.7899269     -2336.9309     -9912.2518    
     27950   162.79092      322.70907     -2344.0289      7.0912815     -2336.9376     -13599.692    
     28000   159.25739      315.70435     -2343.8944      6.9373583     -2336.957      -8860.0417    
     28050   156.34342      309.92783     -2343.7819      6.8104237     -2336.9715     -10142.306    
     28100   152.77736      302.85864     -2343.6363      6.6550838     -2336.9813     -11420.949    
     28150   153.86363      305.01203     -2343.6833      6.7024028     -2336.9809     -8890.238     
     28200   154.89482      307.05621     -2343.746       6.747322      -2336.9986     -7252.8189    
     28250   166.74713      330.55166     -2344.2724      7.2636163     -2337.0088     -11108.857    
     28300   156.21743      309.67807     -2343.8268      6.8049356     -2337.0218     -13731.234    
     28350   155.7959       308.84247     -2343.8308      6.7865737     -2337.0442     -11881.263    
     28400   160.6751       318.51476     -2344.0228      6.9991148     -2337.0236     -13332.291    
     28450   169.92629      336.85389     -2343.9838      7.4021029     -2336.5817     -8641.6474    
     28500   156.56172      310.36058     -2343.4324      6.8199331     -2336.6125     -11221.4      
     28550   167.98656      333.00865     -2343.9538      7.3176069     -2336.6362     -12147.726    
     28600   151.60824      300.54103     -2343.239       6.6041562     -2336.6349     -9675.9923    
     28650   169.61838      336.2435      -2344.0421      7.3886902     -2336.6534     -9276.3       
     28700   171.21326      339.40511     -2344.1265      7.4581641     -2336.6684     -13054.251    
     28750   160.12673      317.42769     -2343.6562      6.9752273     -2336.681      -11124.1      
     28800   174.07151      345.07118     -2344.289       7.5826715     -2336.7063     -15032.432    
     28850   168.24056      333.51217     -2344.0349      7.3286714     -2336.7063     -15121.152    
     28900   162.57725      322.2855      -2343.8233      7.0819739     -2336.7413     -10239.911    
     28950   168.83252      334.68564     -2344.1568      7.3544574     -2336.8023     -11708.492    
     29000   150.14688      297.64411     -2343.356       6.5404986     -2336.8155     -12442.12     
     29050   158.21921      313.64631     -2343.7239      6.8921345     -2336.8317     -9395.1139    
     29100   162.19082      321.51946     -2343.473       7.0651408     -2336.4079     -10068.813    
     29150   168.38013      333.78884     -2343.785       7.3347509     -2336.4503     -12595.555    
     29200   164.56073      326.21745     -2343.6422      7.1683755     -2336.4738     -11360.078    
     29250   161.34787      319.84843     -2343.5297      7.0284212     -2336.5013     -14121.904    
     29300   159.05599      315.30511     -2343.4478      6.9285853     -2336.5192     -12617.891    
     29350   158.91292      315.02149     -2343.4492      6.9223529     -2336.5268     -12375.662    
     29400   160.74722      318.65772     -2343.5415      7.0022563     -2336.5392     -9742.0277    
     29450   156.2553       309.75315     -2343.3628      6.8065853     -2336.5562     -10527.099    
     29500   157.7392       312.69476     -2343.4434      6.8712249     -2336.5722     -13868.833    
     29550   181.74834      360.28936     -2344.5021      7.9170792     -2336.585      -10866.284    
     29600   160.93628      319.03251     -2343.6209      7.0104921     -2336.6104     -8450.9589    
     29650   157.0321       311.29305     -2343.4689      6.8404235     -2336.6285     -11427.136    
     29700   166.23586      329.53814     -2343.8975      7.2413451     -2336.6561     -12401.083    
     29750   163.32185      323.76155     -2343.7894      7.1144091     -2336.675      -9587.1929    
     29800   165.91022      328.8926      -2343.946       7.22716       -2336.7188     -13987.147    
     29850   162.37629      321.88712     -2343.8114      7.0732198     -2336.7381     -11067.008    
     29900   157.55411      312.32786     -2343.6219      6.8631625     -2336.7588     -11292.478    
     29950   157.01961      311.2683      -2343.6289      6.8398794     -2336.7891     -10152.745    
     30000   148.5621       294.50252     -2343.2745      6.4714645     -2336.803      -13003.513    
     30050   166.15964      329.38705     -2343.9741      7.2380251     -2336.7361     -9342.6664    
     30100   176.31278      349.51416     -2344.309       7.6803026     -2336.6287     -9059.4721    
     30150   159.67209      316.52644     -2343.6014      6.955423      -2336.646      -9048.0804    
     30200   162.50025      322.13284     -2343.7477      7.0786194     -2336.669      -10533.383    
     30250   164.25667      325.6147      -2343.8518      7.1551305     -2336.6967     -11440.274    
     30300   161.16628      319.48845     -2343.6688      7.020511      -2336.6483     -8947.708     
     30350   148.81319      295.00026     -2343.1454      6.482402      -2336.663      -10825.42     
     30400   148.87329      295.11941     -2343.1796      6.4850202     -2336.6946     -10227.674    
     30450   174.41017      345.74251     -2344.3237      7.5974236     -2336.7263     -10683.316    
     30500   167.61793      332.2779      -2344.0533      7.3015492     -2336.7518     -9578.9221    
     30550   157.84383      312.90217     -2343.6498      6.8757827     -2336.774      -9550.3635    
     30600   167.2012       331.4518      -2344.0755      7.2833963     -2336.7921     -12361.268    
     30650   171.11031      339.20104     -2344.3063      7.4536798     -2336.8526     -9539.3744    
     30700   150.83371      299.00564     -2343.4114      6.5704172     -2336.841      -12296.487    
     30750   168.18363      333.39931     -2344.0983      7.3261912     -2336.7721     -7720.6373    
     30800   158.44124      314.08645     -2343.7014      6.9018062     -2336.7996     -12368.099    
     30850   151.95286      301.2242      -2343.4398      6.6191683     -2336.8207     -9872.4693    
     30900   155.78209      308.81508     -2343.6153      6.785972      -2336.8293     -13135.914    
     30950   158.87195      314.94027     -2343.8114      6.9205683     -2336.8908     -12206.15     
     31000   168.60851      334.24158     -2344.2601      7.3446997     -2336.9154     -10707.363    
     31050   158.67673      314.55328     -2343.8091      6.9120645     -2336.897      -11594.065    
     31100   164.30038      325.70133     -2344.0798      7.1570342     -2336.9228     -10780.999    
     31150   163.56291      324.23942     -2344.0785      7.1249098     -2336.9535     -10527.198    
     31200   160.53163      318.23036     -2343.9562      6.9928653     -2336.9633     -14736.059    
     31250   159.27488      315.73902     -2343.9162      6.9381202     -2336.9781     -12643.073    
     31300   154.39411      306.06361     -2343.7765      6.7255105     -2337.051      -8931.4461    
     31350   158.93526      315.06578     -2343.9911      6.9233262     -2337.0678     -11505.177    
     31400   176.49938      349.88406     -2344.7578      7.6884309     -2337.0694     -12439.139    
     31450   153.36359      304.02077     -2343.7671      6.6806206     -2337.0865     -11996.417    
     31500   173.43856      343.81643     -2344.5086      7.5550996     -2336.9535     -13168.859    
     31550   153.84907      304.98316     -2343.6746      6.7017685     -2336.9728     -13066.319    
     31600   159.38706      315.9614      -2343.9387      6.9430068     -2336.9957     -11673.951    
     31650   142.39254      282.27227     -2343.2141      6.2027143     -2337.0114     -9728.235     
     31700   157.8911       312.99589     -2343.966       6.8778419     -2337.0882     -12002.679    
     31750   171.60638      340.18442     -2344.4761      7.4752889     -2337.0008     -9595.8897    
     31800   151.35827      300.04552     -2343.6104      6.5932676     -2337.0171     -12814.065    
     31850   171.83456      340.63674     -2344.5329      7.4852282     -2337.0477     -11565.178    
     31900   164.06603      325.23677     -2344.1609      7.1468258     -2337.014      -11796.61     
     31950   160.43849      318.04571     -2344.0171      6.9888079     -2337.0283     -8641.5957    
     32000   176.19636      349.28337     -2344.7698      7.6752312     -2337.0945     -15522.645    
     32050   156.96633      311.16266     -2343.9505      6.8375582     -2337.113      -11988.49     
     32100   162.46379      322.06057     -2344.2047      7.0770314     -2337.1277     -11644.502    
     32150   171.03439      339.05052     -2344.5958      7.4503722     -2337.1454     -12009.028    
     32200   167.26225      331.5728      -2344.4669      7.2860553     -2337.1809     -12679.777    
     32250   171.52975      340.0325      -2344.7823      7.4719505     -2337.3104     -9855.975     
     32300   167.65983      332.36095     -2344.5842      7.3033742     -2337.2808     -12026.334    
     32350   191.30314      379.23033     -2345.6491      8.3332926     -2337.3158     -13717.382    
     32400   169.97532      336.95108     -2344.739       7.4042388     -2337.3347     -9328.3768    
     32450   162.02426      321.18927     -2344.4066      7.0578852     -2337.3487     -9119.9397    
     32500   156.16104      309.56629     -2344.245       6.8024792     -2337.4426     -14468.505    
     32550   158.2617       313.73054     -2344.3551      6.8939854     -2337.4612     -9497.6166    
     32600   166.77938      330.61559     -2344.7538      7.2650212     -2337.4888     -12159.41     
     32650   158.7217       314.64242     -2344.4308      6.9140232     -2337.5168     -9951.4352    
     32700   167.46764      331.97998     -2344.8314      7.2950026     -2337.5364     -13351.037    
     32750   168.29255      333.61523     -2344.8741      7.3309359     -2337.5432     -9935.6089    
     32800   161.91168      320.9661      -2344.5645      7.0529812     -2337.5115     -13149.121    
     32850   163.45003      324.01565     -2344.6558      7.1199926     -2337.5358     -13091.561    
     32900   156.7092       310.65294     -2344.4328      6.8263574     -2337.6064     -8792.2242    
     32950   167.63933      332.32031     -2344.9355      7.3024812     -2337.633      -10561.679    
     33000   167.95694      332.94994     -2344.9742      7.3163167     -2337.6579     -8617.018     
[...]
    191100   184.53728      365.81802     -2343.7388      8.0385674     -2335.7002     -14077.227    
    191150   173.1364       343.21746     -2343.3273      7.5419375     -2335.7854     -12390.463    
    191200   189.33465      375.32809     -2343.6227      8.2475438     -2335.3752     -10179.694    
    191250   186.10472      368.92523     -2343.5039      8.1068459     -2335.397      -11373.96     
    191300   185.74003      368.20229     -2343.5574      8.0909598     -2335.4665     -12622.903    
    191350   197.70894      391.9289      -2344.1675      8.6123336     -2335.5552     -8637.8955    
    191400   189.28991      375.23942     -2343.8836      8.2455952     -2335.638      -15617.809    
    191450   177.49814      351.86395     -2343.3356      7.7319375     -2335.6037     -11913.221    
    191500   180.34708      357.51156     -2343.6972      7.8560393     -2335.8412     -13304.544    
    191550   177.79573      352.45389     -2343.5506      7.744901      -2335.8057     -13257.993    
    191600   177.72712      352.31789     -2343.5543      7.7419124     -2335.8124     -9818.2869    
    191650   201.95352      400.34315     -2344.7433      8.7972304     -2335.9461     -12320.338    
    191700   180.58679      357.98676     -2343.7578      7.8664815     -2335.8913     -14348.112    
    191750   176.81811      350.51589     -2343.6688      7.7023149     -2335.9665     -11620.604    
    191800   182.86541      362.50379     -2344.0129      7.9657396     -2336.0472     -13626.819    
    191850   174.87731      346.66856     -2343.5413      7.6177727     -2335.9235     -15591.86     
    191900   188.7921       374.25257     -2344.2451      8.22391       -2336.0212     -9184.2454    
    191950   168.57859      334.18226     -2343.4833      7.3433961     -2336.14       -10816.712    
    192000   184.81582      366.37018     -2344.293       8.0507006     -2336.2423     -8906.3414    
    192050   175.86822      348.63288     -2343.5764      7.6609373     -2335.9155     -11233.972    
    192100   157.35997      311.943       -2342.5593      6.8547056     -2335.7046     -11697.741    
    192150   173.67172      344.27865     -2343.5069      7.5652564     -2335.9416     -13468.144    
    192200   172.87506      342.69939     -2343.3659      7.5305534     -2335.8354     -14538.88     
    192250   186.66006      370.02612     -2343.9508      8.1310371     -2335.8198     -9760.7509    
    192300   189.54946      375.75393     -2344.1561      8.2569013     -2335.8992     -11007.235    
    192350   190.61268      377.8616      -2344.279       8.3032157     -2335.9758     -10337.921    
    192400   179.17487      355.18784     -2343.846       7.8049773     -2336.0411     -14980.814    
    192450   179.90603      356.63726     -2343.9603      7.8368272     -2336.1235     -13832.218    
    192500   170.23423      337.46433     -2343.602       7.4155169     -2336.1865     -10167.078    
    192550   185.51035      367.74698     -2344.2616      8.0809548     -2336.1806     -11574.975    
    192600   183.89696      364.54869     -2344.1644      8.0106748     -2336.1537     -10028.58     
    192650   180.86922      358.54662     -2343.4136      7.8787841     -2335.5348     -7933.7017    
    192700   181.51264      359.82211     -2343.508       7.9068119     -2335.6012     -10612.674    
    192750   200.74917      397.9557      -2344.4391      8.744768      -2335.6943     -12607.722    
    192800   195.86451      388.27259     -2344.2398      8.5319892     -2335.7078     -10832.06     
    192850   208.35487      413.03289     -2344.4873      9.0760775     -2335.4113     -12457.115    
    192900   191.57267      379.76465     -2343.7919      8.3450337     -2335.4468     -13614.734    
    192950   193.4188       383.42433     -2343.8952      8.4254524     -2335.4698     -10212.441    
    193000   182.30793      361.39865     -2343.4993      7.9414552     -2335.5579     -12708.305    
    193050   184.26495      365.27816     -2343.661       8.0267043     -2335.6343     -13401.718    
    193100   172.65032      342.25387     -2343.2025      7.5207635     -2335.6818     -10361.701    
    193150   186.08992      368.89591     -2343.861       8.1062016     -2335.7548     -10048.227    
    193200   181.22574      359.25338     -2343.6802      7.8943145     -2335.7859     -14693.414    
    193250   182.5432       361.86506     -2343.868       7.951704      -2335.9163     -10780.984    
    193300   179.31196      355.45958     -2343.8169      7.8109487     -2336.006      -8511.0594    
    193350   186.92048      370.54237     -2343.8807      8.1423812     -2335.7383     -9305.2235    
    193400   181.41073      359.6201      -2343.6022      7.9023729     -2335.6998     -14351.235    
    193450   180.47349      357.76216     -2343.6388      7.861546      -2335.7772     -12403.847    
    193500   190.6671       377.96948     -2344.1623      8.3055863     -2335.8567     -11217.314    
    193550   180.98627      358.77867     -2343.661       7.8838831     -2335.7771     -13378.082    
    193600   178.68911      354.22488     -2343.354       7.783817      -2335.5702     -19182.163    
    193650   167.11045      331.27189     -2342.9252      7.2794429     -2335.6458     -10625.903    
    193700   189.09185      374.84679     -2343.9907      8.2369676     -2335.7537     -13365.745    
    193750   175.96831      348.8313      -2343.5239      7.6652974     -2335.8586     -11668.079    
    193800   175.60761      348.11625     -2343.5703      7.6495847     -2335.9207     -10418.38     
    193850   184.09828      364.94777     -2343.6667      8.0194443     -2335.6472     -8372.7639    
    193900   191.29033      379.20494     -2344.0545      8.3327345     -2335.7218     -13061.955    
    193950   192.0772       380.7648      -2344.2122      8.3670112     -2335.8452     -10191.31     
    194000   208.16732      412.6611      -2344.3363      9.0679077     -2335.2684     -11329.444    
    194050   193.39404      383.37525     -2343.7127      8.4243739     -2335.2883     -10559.967    
    194100   177.15521      351.18416     -2343.0819      7.7169996     -2335.3649     -14363.764    
    194150   187.94625      372.57581     -2343.6266      8.1870645     -2335.4395     -11739.243    
    194200   200.47843      397.41901     -2343.883       8.7329746     -2335.15       -15247.762    
    194250   166.92632      330.90689     -2342.58        7.2714223     -2335.3086     -14035.812    
    194300   177.46025      351.78885     -2343.1165      7.7302872     -2335.3862     -13016.631    
    194350   195.53464      387.61867     -2343.9924      8.5176196     -2335.4748     -10462.966    
    194400   188.97172      374.60865     -2342.9892      8.2317346     -2334.7575     -13235.309    
    194450   201.31851      399.08435     -2343.6167      8.7695691     -2334.8472     -11002.264    
    194500   191.65376      379.9254      -2343.2969      8.348566      -2334.9483     -11948.022    
    194550   194.35065      385.27159     -2343.3586      8.4660445     -2334.8926     -10453.552    
    194600   200.9723       398.39803     -2343.4656      8.7544878     -2334.7112     -11022.023    
    194650   188.07231      372.82569     -2342.9844      8.1925554     -2334.7918     -11991.049    
    194700   199.39335      395.268       -2343.5695      8.6857078     -2334.8838     -10577.716    
    194750   206.53326      409.42181     -2343.5995      8.9967268     -2334.6028     -10339.595    
    194800   198.91649      394.3227      -2343.2588      8.6649355     -2334.5939     -10679.264    
    194850   212.45652      421.16381     -2343.9399      9.2547482     -2334.6852     -12380.351    
    194900   208.60713      413.53296     -2343.8663      9.0870662     -2334.7792     -12799.61     
    194950   203.88156      404.16522     -2343.5251      8.8812173     -2334.6439     -11989.88     
    195000   182.39226      361.56583     -2342.8854      7.9451287     -2334.9403     -11973.713    
    195050   195.69693      387.94038     -2343.4882      8.524689      -2334.9635     -12457.126    
    195100   195.40653      387.36471     -2343.4303      8.5120392     -2334.9183     -11753.586    
    195150   175.78794      348.47373     -2342.6574      7.6574401     -2335          -12051.529    
    195200   197.35396      391.22521     -2343.7019      8.5968706     -2335.105      -12631.201    
    195250   187.16276      371.02266     -2343.3643      8.1529352     -2335.2114     -11063.269    
    195300   206.95795      410.26369     -2344.0275      9.0152265     -2335.0122     -10738.871    
    195350   186.70067      370.10662     -2343.1775      8.1328059     -2335.0447     -12072.947    
    195400   204.69736      405.78241     -2344.0398      8.9167537     -2335.1231     -14692.37     
    195450   221.82227      439.73003     -2344.3397      9.6627266     -2334.677      -13651.429    
    195500   204.36669      405.1269      -2343.6061      8.9023496     -2334.7038     -9893.3006    
    195550   195.33855      387.22994     -2343.2981      8.5090777     -2334.789      -10723.129    
    195600   189.73712      376.12594     -2343.1461      8.2650759     -2334.881      -12572.542    
    195650   187.67781      372.04366     -2343.1389      8.175371      -2334.9636     -16004.294    
    195700   204.28122      404.95748     -2343.962       8.8986266     -2335.0633     -7670.3911    
    195750   202.94017      402.29904     -2344.0244      8.8402094     -2335.1842     -9930.1225    
    195800   210.49586      417.27709     -2344.4596      9.1693405     -2335.2902     -12955.877    
    195850   200.67111      397.80096     -2344.0979      8.7413677     -2335.3565     -12252.549    
    195900   197.47709      391.46928     -2344.0151      8.602234      -2335.4129     -8791.7717    
    195950   177.54507      351.957       -2343.1655      7.7339821     -2335.4315     -10506.983    
    196000   205.24923      406.87641     -2344.1631      8.9407937     -2335.2223     -14529.411    
    196050   191.65026      379.91846     -2343.6533      8.3484135     -2335.3049     -9953.0864    
    196100   192.44917      381.50217     -2343.798       8.3832145     -2335.4148     -9479.9757    
    196150   201.95059      400.33735     -2344.2545      8.7971029     -2335.4574     -13392.802    
    196200   200.90966      398.27385     -2344.2899      8.751759      -2335.5381     -10725.377    
    196250   184.35363      365.45397     -2343.5641      8.0305676     -2335.5335     -13552.484    
    196300   201.23771      398.92417     -2344.3635      8.7660493     -2335.5974     -10530.923    
    196350   177.63464      352.13456     -2343.3129      7.7378839     -2335.575      -13116.481    
    196400   206.74861      409.84871     -2344.5552      9.0061077     -2335.5491     -10055.604    
    196450   177.9098       352.68001     -2343.3821      7.7498699     -2335.6323     -12839.105    
    196500   195.49702      387.54409     -2344.2381      8.5159809     -2335.7222     -11379.107    
    196550   194.59299      385.75198     -2344.2972      8.4766006     -2335.8206     -11904.867    
    196600   215.61633      427.42767     -2344.8208      9.3923917     -2335.4284     -10628.486    
    196650   194.02102      384.61815     -2343.8266      8.4516856     -2335.3749     -14807.384    
    196700   184.38987      365.52579     -2343.4357      8.0321459     -2335.4035     -15419.771    
    196750   187.32329      371.34088     -2343.6426      8.1599279     -2335.4827     -14722.884    
    196800   194.04294      384.66159     -2343.9861      8.4526402     -2335.5335     -12384.586    
    196850   187.06355      370.82599     -2343.6105      8.1486135     -2335.4619     -16563.352    
    196900   193.51054      383.60619     -2343.2908      8.4294487     -2334.8613     -11447.121    
    196950   161.45646      320.06369     -2341.9722      7.0331515     -2334.939      -13192.944    
    197000   191.96848      380.54928     -2343.4272      8.3622753     -2335.0649     -11184.949    
    197050   206.82815      410.00639     -2343.8784      9.0095725     -2334.8688     -13562.634    
    197100   178.04125      352.94059     -2342.7054      7.7555959     -2334.9498     -14431.255    
    197150   189.81583      376.28198     -2343.3057      8.2685047     -2335.0372     -11549.171    
    197200   181.45719      359.7122      -2343.0129      7.9043967     -2335.1085     -14294.328    
    197250   182.0829       360.95256     -2343.3435      7.9316527     -2335.4119     -12746.504    
    197300   192.50501      381.61286     -2343.3254      8.3856468     -2334.9398     -12774.483    
    197350   181.25827      359.31786     -2342.9682      7.8957315     -2335.0725     -11602.608    
    197400   203.58232      403.57202     -2344.0421      8.8681822     -2335.1739     -13450.782    
    197450   193.55495      383.69422     -2343.7297      8.4313829     -2335.2983     -10610.091    
    197500   197.89081      392.28943     -2343.8252      8.620256      -2335.205      -14128.808    
    197550   189.56622      375.78715     -2343.5523      8.2576312     -2335.2947     -13563.724    
    197600   181.84944      360.48977     -2343.2932      7.9214832     -2335.3717     -11232.931    
    197650   187.09047      370.87934     -2343.6836      8.149786      -2335.5338     -11295.601    
    197700   181.60153      359.99833     -2343.4357      7.9106842     -2335.525      -12376.66     
    197750   180.93234      358.67175     -2343.4193      7.8815336     -2335.5378     -11587.66     
    197800   178.1908       353.23705     -2343.38        7.7621104     -2335.6179     -8190.3708    
    197850   187.81389      372.31342     -2343.8797      8.1812986     -2335.6984     -12256.788    
    197900   197.94988      392.40654     -2343.9277      8.6228294     -2335.3049     -10669.515    
    197950   196.6745       389.87828     -2343.9144      8.5672728     -2335.3471     -8863.2785    
    198000   194.82942      386.22068     -2343.9105      8.4869        -2335.4236     -4827.2454    
    198050   190.86161      378.35507     -2343.8319      8.3140593     -2335.5178     -10802.879    
    198100   194.04955      384.67469     -2343.7378      8.4529281     -2335.2848     -8473.962     
    198150   188.61564      373.90277     -2343.4447      8.2162234     -2335.2285     -8827.3041    
    198200   176.61476      350.11278     -2342.997       7.6934569     -2335.3036     -6786.9025    
    198250   187.89794      372.48003     -2343.575       8.18496       -2335.3901     -7639.2113    
    198300   186.52126      369.75098     -2343.7062      8.124991      -2335.5812     -9637.1538    
    198350   195.03949      386.6371      -2344.1747      8.4960504     -2335.6786     -8045.2493    
    198400   190.41348      377.46672     -2343.9992      8.2945385     -2335.7047     -15104.297    
    198450   197.14166      390.80436     -2344.3847      8.5876228     -2335.7971     -8640.6939    
    198500   188.10216      372.88487     -2343.0898      8.1938559     -2334.896      -11444.289    
    198550   190.38334      377.40698     -2343.2696      8.2932258     -2334.9764     -9424.3901    
    198600   199.68139      395.83898     -2343.7832      8.6982548     -2335.0849     -12072.788    
    198650   191.35037      379.32397     -2343.4851      8.3353502     -2335.1497     -10294.702    
    198700   178.34145      353.53569     -2343.0033      7.7686727     -2335.2346     -10842.573    
    198750   189.33902      375.33676     -2343.5711      8.2477342     -2335.3234     -11545.374    
    198800   196.0029       388.54692     -2343.964       8.5380173     -2335.426      -11699.171    
    198850   189.76634      376.18386     -2343.7797      8.2663487     -2335.5134     -9151.8616    
    198900   177.85208      352.56559     -2343.1591      7.7473556     -2335.4117     -9268.0477    
    198950   180.76841      358.34678     -2343.2936      7.8743928     -2335.4192     -10185.883    
    199000   195.41903      387.38949     -2343.9927      8.5125837     -2335.4801     -13560.348    
    199050   202.58706      401.59905     -2344.384       8.8248277     -2335.5592     -9863.6328    
    199100   195.91134      388.36542     -2344.1967      8.5340289     -2335.6627     -13285.117    
    199150   177.85069      352.56284     -2343.492       7.747295      -2335.7447     -11995.34     
    199200   172.53949      342.03417     -2343.3384      7.5159356     -2335.8224     -12915.96     
    199250   186.50752      369.72372     -2343.9955      8.1243922     -2335.8711     -13013.048    
    199300   201.34991      399.14658     -2344.5358      8.7709367     -2335.7648     -17854.028    
    199350   191.88787      380.38948     -2344.1996      8.3587639     -2335.8408     -10454.06     
    199400   169.16912      335.3529      -2343.1489      7.36912       -2335.7798     -9064.2956    
    199450   201.41893      399.28341     -2344.2963      8.7739432     -2335.5224     -11968.212    
    199500   187.49813      371.68747     -2343.6741      8.1675441     -2335.5066     -9899.6788    
    199550   188.72392      374.11742     -2343.8139      8.2209402     -2335.593      -8762.0148    
    199600   205.29954      406.97615     -2344.6638      8.9429852     -2335.7208     -12553.525    
    199650   168.07151      333.17705     -2343.2116      7.3213074     -2335.8903     -8497.4729    
    199700   209.838        415.97297     -2345.014       9.1406836     -2335.8734     -10636.031    
    199750   186.16036      369.03553     -2344.1038      8.1092696     -2335.9945     -12927.147    
    199800   198.8818       394.25392     -2344.7632      8.6634241     -2336.0997     -11449.373    
    199850   179.7054       356.23954     -2344.1174      7.8280876     -2336.2893     -11569.064    
    199900   175.23052      347.36874     -2343.9616      7.6331588     -2336.3285     -14710.613    
    199950   206.07649      408.51633     -2345.338       8.9768296     -2336.3612     -11609.259    
    200000   178.41794      353.68734     -2344.2169      7.772005      -2336.4449     -11359.172    
colvars: Saving collective variables state to "out.colvars.state".
Loop time of 1114.63 on 4 procs for 200000 steps with 338 atoms

Performance: 7.751 ns/day, 3.096 hours/ns, 179.432 timesteps/s, 60.648 katom-step/s
135.1% CPU use with 4 MPI tasks x 1 OpenMP threads

MPI task timing breakdown:
Section |  min time  |  avg time  |  max time  |%varavg| %total
---------------------------------------------------------------
Pair    | 823.92     | 954.16     | 1024.7     | 251.1 | 85.60
Neigh   | 0.13146    | 1.497      | 2.535      |  74.4 |  0.13
Comm    | 10.358     | 75.184     | 210.04     | 937.8 |  6.75
Output  | 39.209     | 45.56      | 52.659     |  88.0 |  4.09
Modify  | 18.622     | 29.49      | 51.816     | 242.0 |  2.65
Other   |            | 8.73       |            |       |  0.78

Nlocal:           84.5 ave         116 max          12 min
Histogram: 1 0 0 0 0 0 0 0 1 2
Nghost:        1154.25 ave        1663 max         711 min
Histogram: 1 0 0 1 0 1 0 0 0 1
Neighs:              0 ave           0 max           0 min
Histogram: 4 0 0 0 0 0 0 0 0 0
FullNghs:      14636.5 ave       21964 max        1387 min
Histogram: 1 0 0 0 0 1 0 0 0 2

Total # of neighbors = 58546
Ave neighs/atom = 173.21302
Neighbor list builds = 2632
Dangerous builds = 0
System init for write_data ...
Generated 0 of 10 mixed pair_coeff terms from geometric mixing rule

CITE-CITE-CITE-CITE-CITE-CITE-CITE-CITE-CITE-CITE-CITE-CITE-CITE

Your simulation uses code contributions which should be cited:
- Colvars module (Fiorin2013, plus other works listed for specific features)
The log file lists these citations in BibTeX format.

CITE-CITE-CITE-CITE-CITE-CITE-CITE-CITE-CITE-CITE-CITE-CITE-CITE

Total wall time: 0:18:57
