LAMMPS (2 Aug 2023)
OMP_NUM_THREADS environment is not set. Defaulting to 1 thread. (src/comm.cpp:98)
  using 1 OpenMP thread(s) per MPI task
Loaded 1 plugins from /work/home/baoergen22b/apprepo/deepmd/v2.2.9-dtk23.10/app/lib/deepmd_lmp
Reading data file ...
  orthogonal box = (0 0 0) to (11.328 12.015 32)
  1 by 1 by 4 MPI processor grid
  reading atoms ...
  338 atoms
  read_data CPU = 0.026 seconds
Summary of lammps deepmd module ...
  >>> Info of deepmd-kit:
  installed to:       /work/home/wys974137909/shangcheng/deepmd-kit/20240715/deepmd-kit_v2.2.9/install
  source:             v2.2.9
  source branch:      HEAD
  source commit:      be43748
  source commit at:   2024-02-04 13:44:12 +0800
  support model ver.: 1.1 
  build variant:      rocm
  build with tf inc:  /work/home/wys974137909/shangcheng/miniconda3/envs/deepmd-kit-v2.2.9/lib/python3.8/site-packages/tensorflow/include;/work/home/wys974137909/shangcheng/miniconda3/envs/deepmd-kit-v2.2.9/lib/python3.8/site-packages/tensorflow/include
  build with tf lib:  /work/home/wys974137909/shangcheng/miniconda3/envs/deepmd-kit-v2.2.9/lib/python3.8/site-packages/tensorflow/lib/libtensorflow_cc.so
  set tf intra_op_parallelism_threads: 0
  set tf inter_op_parallelism_threads: 0
  >>> Info of lammps module:
  use deepmd-kit at:  /work/home/wys974137909/shangcheng/deepmd-kit/20240715/deepmd-kit_v2.2.9/install
  source:             v2.2.9
  source branch:      HEAD
  source commit:      be43748
  source commit at:   2024-02-04 13:44:12 +0800
  build float prec:   double
  build with tf inc:  /work/home/wys974137909/shangcheng/miniconda3/envs/deepmd-kit-v2.2.9/lib/python3.8/site-packages/tensorflow/include;/work/home/wys974137909/shangcheng/miniconda3/envs/deepmd-kit-v2.2.9/lib/python3.8/site-packages/tensorflow/include
  build with tf lib:  /work/home/wys974137909/shangcheng/miniconda3/envs/deepmd-kit-v2.2.9/lib/python3.8/site-packages/tensorflow/lib/libtensorflow_cc.so
INVALID_ARGUMENT: Tensor spin_attr/ntypes_spin:0, specified in either feed_devices or fetch_devices was not found in the Graph
  >>> Info of model(s):
  using   1 model(s): graph-compress.pb 
  rcut in model:      6
  ntypes in model:    4
INVALID_ARGUMENT: Tensor spin_attr/ntypes_spin:0, specified in either feed_devices or fetch_devices was not found in the Graph
INVALID_ARGUMENT: Tensor spin_attr/ntypes_spin:0, specified in either feed_devices or fetch_devices was not found in the Graph
INVALID_ARGUMENT: Tensor spin_attr/ntypes_spin:0, specified in either feed_devices or fetch_devices was not found in the Graph
167 atoms in group fixed
171 atoms in group mobile

CITE-CITE-CITE-CITE-CITE-CITE-CITE-CITE-CITE-CITE-CITE-CITE-CITE

Your simulation uses code contributions which should be cited:
- GPU package (short-range, long-range and three-body potentials): doi:10.1016/j.cpc.2010.12.021, doi:10.1016/j.cpc.2011.10.012, doi:10.1016/j.cpc.2013.08.002, doi:10.1016/j.commatsci.2014.10.068, doi:10.1016/j.cpc.2016.10.020, doi:10.3233/APC200086
- USER-DEEPMD package:
The log file lists these citations in BibTeX format.

CITE-CITE-CITE-CITE-CITE-CITE-CITE-CITE-CITE-CITE-CITE-CITE-CITE

Generated 0 of 6 mixed pair_coeff terms from geometric mixing rule
Neighbor list info ...
  update: every = 1 steps, delay = 0 steps, check = yes
  max neighbors/atom: 2000, page size: 100000
  master list distance cutoff = 8
  ghost atom cutoff = 8
  binsize = 4, bins = 3 4 8
  1 neighbor lists, perpetual/occasional/extra = 1 0 0
  (1) pair deepmd, perpetual
      attributes: full, newton on
      pair build: full/bin/atomonly
      stencil: full/bin/3d
      bin: standard
Setting up Verlet run ...
  Unit style    : metal
  Current step  : 0
  Time step     : 0.0005
colvars: Creating proxy instance
colvars: ----------------------------------------------------------------------
colvars: Initializing the collective variables module, version 2023-05-01.
colvars: Please cite Fiorin et al, Mol Phys 2013:
colvars:   https://doi.org/10.1080/00268976.2013.813594
colvars: as well as all other papers listed below for individual features used.
colvars: This version was built with the C++11 standard or higher.
colvars: Using LAMMPS interface, version "2023-04-12".
colvars: ----------------------------------------------------------------------
colvars: Reading new configuration from file "pmf.in":
colvars: # units = "" [default]
colvars: # smp = on [default]
colvars: # colvarsTrajFrequency = 100 [default]
colvars: # colvarsRestartFrequency = 0 [default]
colvars: # scriptedColvarForces = off [default]
colvars: # scriptingAfterBiases = off [default]
colvars: ----------------------------------------------------------------------
colvars:   Initializing a new collective variable.
colvars:   # name = "d"
colvars:   Initializing a new "distanceZ" component.
colvars:     # name = "" [default]
colvars:     # componentCoeff = 1 [default]
colvars:     # componentExp = 1 [default]
colvars:     # period = 0 [default]
colvars:     # wrapAround = 0 [default]
colvars:     # forceNoPBC = off [default]
colvars:     # scalable = on [default]
colvars:       Initializing atom group "main".
colvars:       # name = "" [default]
colvars:       # centerToOrigin = off [default]
colvars:       # centerToReference = off [default]
colvars:       # rotateToReference = off [default]
colvars:       # atomsOfGroup = "" [default]
colvars:       # indexGroup = "" [default]
colvars:       # psfSegID =  [default]
colvars:       # atomsFile = "" [default]
colvars:       # dummyAtom = ( 0 , 0 , 0 ) [default]
colvars:       # enableFitGradients = on [default]
colvars:       # printAtomIDs = off [default]
colvars:       Atom group "main" defined with 1 atoms requested.
colvars:       Initializing atom group "ref".
colvars:       # name = "" [default]
colvars:       # centerToOrigin = off [default]
colvars:       # centerToReference = off [default]
colvars:       # rotateToReference = off [default]
colvars:       # atomsOfGroup = "" [default]
colvars:       # indexGroup = "" [default]
colvars:       # psfSegID =  [default]
colvars:       # atomsFile = "" [default]
colvars:       # dummyAtom = ( 0 , 0 , 0 ) [default]
colvars:       # enableFitGradients = on [default]
colvars:       # printAtomIDs = off [default]
colvars:       Atom group "ref" defined with 22 atoms requested.
colvars:     # axis = ( 0 , 0 , 1 ) [default]
colvars:     # oneSiteSystemForce = off [default]
colvars:     # oneSiteTotalForce = off [default]
colvars:   All components initialized.
colvars:   # timeStepFactor = 1 [default]
colvars:   # width = 0.05
colvars:   # lowerBoundary = -0.2
colvars:   # upperBoundary = 6
colvars:   # hardLowerBoundary = on
colvars:   # hardUpperBoundary = off [default]
colvars:   # expandBoundaries = off [default]
colvars:   # extendedLagrangian = off [default]
colvars:   # outputValue = on [default]
colvars:   # outputVelocity = off [default]
colvars:   # outputTotalForce = on
colvars:   # outputAppliedForce = on
colvars:   # subtractAppliedForce = off [default]
colvars:   # runAve = off [default]
colvars:   # corrFunc = off [default]
colvars: ----------------------------------------------------------------------
colvars: Collective variables initialized, 1 in total.
colvars: ----------------------------------------------------------------------
colvars:   Initializing a new "metadynamics" instance.
colvars:   # name = "metadynamics1" [default]
colvars:   # colvars = { d }
colvars:   # stepZeroData = off [default]
colvars:   # outputEnergy = off [default]
colvars:   # outputFreq = 0 [default]
colvars:   # timeStepFactor = 1 [default]
colvars:   # writeTISamples = on
colvars:   # writeTIPMF = on
colvars:   # hillWeight = 0.1
colvars:   # newHillFrequency = 300
colvars:   # gaussianSigmas =  [default]
colvars:   # hillWidth = 1
colvars:   Half-widths of the Gaussian hills (sigma's):
colvars:   d: 0.025
colvars:   # multipleReplicas = off [default]
colvars:   # useGrids = on [default]
colvars:   # gridsUpdateFrequency = 300 [default]
colvars:   # rebinGrids = off [default]
colvars:   # writeFreeEnergyFile = on [default]
colvars:   # keepHills = off [default]
colvars:   # keepFreeEnergyFiles = off [default]
colvars:   # writeHillsTrajectory = off [default]
colvars:   # wellTempered = off [default]
colvars:   # biasTemperature = 800
colvars:   # ebMeta = off [default]
colvars: ----------------------------------------------------------------------
colvars: Collective variables biases initialized, 1 in total.
colvars: ----------------------------------------------------------------------
colvars: Collective variables module (re)initialized.
colvars: ----------------------------------------------------------------------
colvars: Re-initialized atom group for variable "d":0/0. 1 atoms: total mass = 55.845, total charge = 3.60739e-313.
colvars: Re-initialized atom group for variable "d":0/1. 22 atoms: total mass = 1228.59, total charge = 6.9641e+252.
colvars: The restart output state file will be "rest.colvars.state".
colvars: The final output state file will be "out.colvars.state".
Per MPI rank memory allocation (min/avg/max) = 3.132 | 3.155 | 3.171 Mbytes
   Step          Temp         c_mTemp         PotEng         KinEng         TotEng         Press     
         0   150.40208      298.15        -2338.2108      6.5516151     -2331.6592     -12178.041    
        50   163.99746      325.10084     -2338.805       7.1438389     -2331.6612     -11862.191    
       100   155.95433      309.15652     -2338.4536      6.7934748     -2331.6601     -10815.969    
       150   148.13808      293.66197     -2338.1166      6.452994      -2331.6637     -8199.0896    
       200   152.82226      302.94765     -2338.327       6.6570398     -2331.67       -10065.284    
       250   166.4435       329.94976     -2338.927       7.2503901     -2331.6766     -12810.32     
       300   169.60033      336.2077      -2339.0652      7.3879036     -2331.6773     -10265.85     
       350   156.74752      310.7289      -2338.5155      6.8280266     -2331.6874     -11825.307    
       400   165.90223      328.87677     -2338.8549      7.226812      -2331.6281     -12401.817    
       450   157.43286      312.0875      -2338.4953      6.8578809     -2331.6374     -12601.966    
       500   168.48503      333.99679     -2338.9806      7.3393205     -2331.6413     -11743.409    
       550   153.02444      303.34846     -2338.3045      6.6658471     -2331.6386     -10500.657    
       600   158.60419      314.40949     -2338.5676      6.9089048     -2331.6587     -11950.401    
       650   155.95764      309.16309     -2338.3494      6.7936191     -2331.5558     -12959.509    
       700   159.30731      315.80332     -2338.489       6.9395332     -2331.5495     -12198.988    
       750   151.80395      300.929       -2338.1739      6.6126814     -2331.5612     -8326.2732    
       800   151.88153      301.08279     -2338.1766      6.6160608     -2331.5605     -11346.124    
       850   160.12744      317.42909     -2338.5977      6.9752582     -2331.6225     -11257.518    
       900   145.06009      287.56029     -2337.9811      6.3189144     -2331.6621     -9567.3406    
       950   161.16596      319.48782     -2338.5255      7.020497      -2331.505      -12251.316    
      1000   148.47128      294.32248     -2337.981       6.4675083     -2331.5135     -13455.333    
      1050   154.34528      305.96683     -2338.252       6.7233839     -2331.5286     -10292.289    
      1100   166.78118      330.61916     -2338.8048      7.2650996     -2331.5397     -9496.5082    
      1150   169.46582      335.94107     -2338.9969      7.3820446     -2331.6149     -10948.066    
      1200   160.27244      317.71654     -2338.5383      6.9815747     -2331.5567     -11696.515    
      1250   159.74894      316.67877     -2338.4624      6.9587705     -2331.5036     -9443.7664    
      1300   146.90057      291.20878     -2337.9051      6.3990871     -2331.506      -10939.927    
      1350   155.24493      307.75025     -2338.3341      6.7625731     -2331.5715     -11746.233    
      1400   153.66512      304.61849     -2338.247       6.6937552     -2331.5533     -11338.319    
      1450   166.5003       330.06235     -2338.8117      7.2528643     -2331.5588     -12342.722    
      1500   156.53362      310.30488     -2338.4096      6.8187091     -2331.5909     -11225.52     
      1550   156.58397      310.40469     -2338.3696      6.8209024     -2331.5487     -12308.673    
      1600   182.88044      362.53358     -2339.6328      7.9663944     -2331.6664     -12193.269    
      1650   165.87573      328.82424     -2338.7731      7.2256577     -2331.5475     -13096.522    
      1700   153.40367      304.10022     -2338.2364      6.6823666     -2331.554      -9938.2173    
      1750   156.88374      310.99895     -2338.4216      6.8339608     -2331.5876     -13380.752    
      1800   142.66737      282.81708     -2337.9258      6.2146861     -2331.7111     -11949.916    
      1850   160.26838      317.7085      -2338.5716      6.981398      -2331.5902     -9426.9061    
      1900   139.59187      276.72036     -2337.6072      6.0807154     -2331.5264     -12736.678    
      1950   148.36664      294.11505     -2338.0192      6.4629503     -2331.5562     -12710.698    
      2000   153.93824      305.15993     -2338.3755      6.7056528     -2331.6698     -10934.659    
      2050   150.39656      298.13907     -2338.3458      6.551375      -2331.7944     -10646.819    
      2100   165.97261      329.01629     -2338.8929      7.2298779     -2331.663      -11907.485    
      2150   149.07042      295.51019     -2338.1049      6.4936073     -2331.6113     -12401.907    
      2200   165.07534      327.23759     -2338.8254      7.1907924     -2331.6346     -12785.814    
      2250   150.96382      299.26357     -2338.2533      6.576085      -2331.6772     -13149.31     
      2300   161.33717      319.82721     -2338.8211      7.027955      -2331.7932     -11978.612    
      2350   156.9513       311.13287     -2338.5794      6.8369035     -2331.7425     -11383.142    
      2400   158.77969      314.75739     -2338.6119      6.9165496     -2331.6954     -12712.129    
      2450   158.3714       313.94802     -2338.6246      6.8987643     -2331.7258     -11538.642    
      2500   163.33217      323.78201     -2338.9003      7.1148587     -2331.7855     -10946.375    
      2550   153.28464      303.86425     -2338.6603      6.6771814     -2331.9831     -10366.968    
      2600   155.33029      307.91946     -2338.7686      6.7662915     -2332.0023     -10781.034    
      2650   159.74728      316.6755      -2338.899       6.9586986     -2331.9403     -11175.59     
      2700   155.72889      308.70963     -2338.6712      6.7836548     -2331.8876     -8484.2045    
      2750   164.3823       325.86373     -2339.0768      7.1606028     -2331.9162     -11088.282    
      2800   151.04773      299.42991     -2338.572       6.5797402     -2331.9923     -12077.856    
      2850   148.31713      294.0169      -2338.5232      6.4607935     -2332.0624     -9108.727     
      2900   157.93557      313.08404     -2338.8452      6.879779      -2331.9655     -8899.2855    
      2950   167.54775      332.13878     -2339.357       7.2984923     -2332.0585     -13301.678    
      3000   168.67812      334.37956     -2339.4242      7.3477316     -2332.0764     -9077.026     
      3050   160.43131      318.03148     -2339.1274      6.9884951     -2332.1389     -10753.634    
      3100   143.57335      284.61305     -2338.4734      6.2541511     -2332.2193     -9915.805     
      3150   151.96065      301.23963     -2338.9181      6.6195074     -2332.2986     -11032.461    
      3200   160.67312      318.51083     -2339.1546      6.9990286     -2332.1556     -10844.871    
      3250   139.79133      277.11576     -2338.3064      6.0894039     -2332.217      -10246.943    
      3300   141.08198      279.67427     -2338.3887      6.1456252     -2332.243      -11210.48     
      3350   153.2389       303.77359     -2338.969       6.675189      -2332.2939     -12380.858    
      3400   144.92753      287.29752     -2338.6255      6.3131401     -2332.3124     -13267.536    
      3450   161.60008      320.3484      -2339.3071      7.0394077     -2332.2677     -8438.8154    
      3500   147.90166      293.19329     -2338.8026      6.4426952     -2332.3599     -12536.711    
      3550   149.41899      296.20118     -2338.8779      6.5087912     -2332.3691     -8447.1868    
      3600   140.49188      278.5045      -2338.5197      6.1199204     -2332.3998     -10805.041    
      3650   164.99827      327.0848      -2339.5427      7.1874349     -2332.3552     -11285.183    
      3700   162.79375      322.71467     -2339.4448      7.0914047     -2332.3534     -10220.53     
      3750   153.70073      304.68909     -2339.0495      6.6953064     -2332.3542     -10633.236    
      3800   157.84486      312.90422     -2339.2441      6.8758276     -2332.3683     -12366.109    
      3850   166.31979      329.70453     -2339.6331      7.2450014     -2332.3881     -9709.187     
      3900   147.53414      292.46473     -2338.9959      6.4266856     -2332.5692     -12493.35     
      3950   144.99916      287.43951     -2338.7531      6.3162604     -2332.4369     -10806.875    
      4000   145.38379      288.20197     -2338.7332      6.3330149     -2332.4002     -12264.104    
      4050   133.56669      264.77632     -2338.2238      5.8182544     -2332.4056     -10719.452    
      4100   149.30219      295.96963     -2338.8232      6.5037032     -2332.3195     -10855.931    
      4150   145.69658      288.82204     -2338.8286      6.3466403     -2332.4819     -12897.972    
      4200   152.7723       302.84861     -2339.0238      6.6548634     -2332.3689     -13301.742    
      4250   142.01876      281.5313      -2338.505       6.1864321     -2332.3186     -10207.446    
      4300   154.59507      306.462       -2339.0729      6.7342649     -2332.3386     -12964.507    
      4350   145.28361      288.0034      -2338.7093      6.3286513     -2332.3806     -12224.717    
      4400   158.32729      313.86057     -2339.2749      6.8968426     -2332.378      -9789.6049    
      4450   155.04709      307.35805     -2339.1982      6.7539548     -2332.4443     -11821.21     
      4500   147.09176      291.58778     -2338.8583      6.4074153     -2332.4508     -10101.256    
      4550   154.96038      307.18616     -2339.2274      6.7501777     -2332.4772     -12038.89     
      4600   152.74063      302.78584     -2339.2732      6.653484      -2332.6197     -9739.457     
      4650   149.94105      297.23607     -2338.9389      6.5315322     -2332.4073     -10776.155    
      4700   127.14705      252.05034     -2337.9872      5.5386108     -2332.4486     -12655.282    
      4750   136.50393      270.59898     -2338.3959      5.9462027     -2332.4497     -13384.572    
      4800   141.12489      279.75934     -2338.6268      6.1474946     -2332.4793     -11315.027    
      4850   158.71745      314.634       -2339.3121      6.9138382     -2332.3983     -12183.853    
      4900   152.55328      302.41444     -2339.0114      6.6453229     -2332.3661     -9338.2089    
      4950   148.79592      294.96603     -2338.8633      6.4816497     -2332.3816     -11349.858    
      5000   134.12085      265.87485     -2338.2293      5.8423937     -2332.3869     -12134.303    
      5050   161.00826      319.1752      -2339.4027      7.0136275     -2332.3891     -11274.64     
      5100   146.2099       289.83962     -2338.9235      6.3690009     -2332.5545     -9614.8937    
      5150   144.91354      287.26979     -2338.7127      6.3125308     -2332.4002     -11618.48     
      5200   150.97487      299.28547     -2338.8859      6.5765662     -2332.3094     -11806.774    
      5250   142.01005      281.51405     -2338.5905      6.1860529     -2332.4044     -8298.0578    
      5300   152.64038      302.5871      -2338.9916      6.6491169     -2332.3424     -10055.095    
      5350   137.28893      272.15511     -2338.3272      5.9803975     -2332.3468     -10591.396    
      5400   144.93271      287.30778     -2338.6613      6.3133657     -2332.3479     -8860.483     
      5450   146.56436      290.54228     -2338.8238      6.3844414     -2332.4394     -12377.417    
      5500   162.88885      322.90319     -2339.4007      7.0955472     -2332.3051     -10319.143    
      5550   155.32285      307.9047      -2339.1184      6.7659671     -2332.3525     -8724.2491    
      5600   142.68663      282.85526     -2338.8543      6.215525      -2332.6388     -11073.498    
      5650   153.83117      304.94768     -2339.0713      6.7009889     -2332.3703     -6809.1428    
      5700   147.52192      292.44051     -2338.7854      6.4261535     -2332.3592     -9511.843     
      5750   147.70092      292.79535     -2338.7949      6.4339507     -2332.3609     -10215.682    
      5800   161.23577      319.6262      -2339.2635      7.0235379     -2332.2399     -12635.456    
      5850   149.06893      295.50722     -2338.8363      6.4935421     -2332.3427     -12489.517    
      5900   144.0272       285.51274     -2338.6743      6.273921      -2332.4004     -12345.969    
      5950   151.1284       299.58983     -2338.9041      6.5832543     -2332.3209     -12572.522    
      6000   137.58694      272.74588     -2338.3642      5.9933792     -2332.3708     -13625.097    
      6050   156.71889      310.67215     -2339.1618      6.8267795     -2332.335      -13221.189    
      6100   150.58573      298.51406     -2338.7806      6.5596151     -2332.221      -10390.455    
      6150   147.44461      292.28725     -2338.6485      6.4227857     -2332.2257     -8415.2319    
      6200   154.68851      306.64722     -2339.0926      6.7383349     -2332.3542     -13348.793    
      6250   151.40044      300.12911     -2339.1372      6.5951046     -2332.5421     -12376.811    
      6300   164.33388      325.76775     -2339.5383      7.1584937     -2332.3798     -10138.169    
      6350   157.67323      312.56399     -2339.2706      6.8683513     -2332.4023     -10966.834    
      6400   158.60338      314.40789     -2339.2299      6.9088695     -2332.321      -12354.164    
      6450   143.71033      284.88459     -2338.7515      6.260118      -2332.4914     -12744.735    
      6500   155.34055      307.9398      -2339.1764      6.7667382     -2332.4096     -12443.442    
      6550   149.13675      295.64167     -2338.9628      6.4964964     -2332.4663     -10555.356    
      6600   166.40411      329.87168     -2339.513       7.2486744     -2332.2643     -12763.068    
      6650   150.63122      298.60424     -2338.8116      6.5615967     -2332.25       -10344.761    
      6700   165.04748      327.18236     -2339.4454      7.1895786     -2332.2558     -10453.61     
      6750   167.79565      332.63021     -2339.5848      7.3092909     -2332.2755     -10355.522    
      6800   165.94582      328.96319     -2339.5995      7.2287111     -2332.3708     -8289.8163    
      6850   155.18008      307.62169     -2339.023       6.7597482     -2332.2633     -8077.079     
      6900   153.03463      303.36864     -2338.9035      6.6662907     -2332.2372     -10947.217    
      6950   158.45844      314.12055     -2339.0398      6.9025556     -2332.1372     -11521.229    
      7000   150.83928      299.01669     -2338.7159      6.5706598     -2332.1452     -12972.165    
      7050   149.04381      295.45744     -2338.759       6.4924482     -2332.2666     -8516.6698    
      7100   156.64569      310.52704     -2339.1094      6.8235909     -2332.2858     -12580.413    
      7150   161.7265       320.599       -2339.3449      7.0449145     -2332.3        -10414.015    
      7200   157.02027      311.2696      -2339.1329      6.839908      -2332.293      -8243.3359    
      7250   148.24862      293.8811      -2338.7572      6.4578092     -2332.2994     -6906.3381    
      7300   154.74971      306.76855     -2339.0621      6.7410011     -2332.3211     -10619.031    
      7350   158.77174      314.74162     -2339.3318      6.9162031     -2332.4156     -11515.879    
      7400   156.7856       310.8044      -2339.1726      6.8296857     -2332.343      -10126.716    
      7450   152.77764      302.8592      -2338.9713      6.6550962     -2332.3162     -12844.291    
      7500   162.10202      321.34341     -2339.4194      7.0612723     -2332.3581     -9883.288     
      7550   164.6102       326.31551     -2339.4856      7.1705303     -2332.3151     -9751.1745    
      7600   155.99197      309.23114     -2339.1819      6.7951146     -2332.3868     -9535.0154    
      7650   144.80078      287.04626     -2338.6758      6.307619      -2332.3681     -7701.3011    
      7700   149.52299      296.40734     -2338.8846      6.5133214     -2332.3713     -11616.37     
      7750   166.49514      330.05213     -2339.529       7.2526397     -2332.2764     -9177.6657    
      7800   152.3553       302.02197     -2339.127       6.6366987     -2332.4903     -10565.859    
      7850   143.48171      284.43139     -2338.5441      6.2501593     -2332.2939     -10185.765    
      7900   146.4979       290.41054     -2338.6793      6.3815465     -2332.2978     -14996.422    
      7950   139.60619      276.74874     -2338.5259      6.081339      -2332.4445     -10854.335    
      8000   141.13531      279.78        -2338.6124      6.1479486     -2332.4644     -9745.7473    
      8050   162.15069      321.43989     -2339.3325      7.0633924     -2332.2691     -12655.232    
      8100   149.30966      295.98444     -2338.7878      6.5040285     -2332.2838     -8742.0912    
      8150   149.28046      295.92656     -2338.7884      6.5027566     -2332.2857     -8349.2372    
      8200   162.89296      322.91134     -2339.4825      7.0957264     -2332.3868     -10553.901    
      8250   164.37886      325.85692     -2339.5214      7.1604532     -2332.3609     -13854.107    
      8300   146.33134      290.08036     -2338.6435      6.3742911     -2332.2692     -12526.482    
      8350   147.89442      293.17895     -2338.7357      6.44238       -2332.2934     -10859.62     
      8400   152.15421      301.62335     -2339.038       6.6279392     -2332.41       -12306.306    
      8450   148.17438      293.73391     -2338.6089      6.454575      -2332.1543     -12236.607    
      8500   149.51181      296.38518     -2338.8046      6.5128344     -2332.2917     -12464.829    
      8550   150.09063      297.53259     -2338.8407      6.5380481     -2332.3026     -10253.917    
      8600   154.7863       306.84107     -2339.0507      6.7425945     -2332.3081     -11995.572    
      8650   159.54335      316.27122     -2339.4686      6.9498149     -2332.5188     -14820.252    
      8700   155.52447      308.3044      -2339.3145      6.7747501     -2332.5397     -13739.656    
      8750   134.75665      267.13524     -2338.2824      5.8700898     -2332.4123     -10789.958    
      8800   134.95779      267.53398     -2338.1823      5.8788518     -2332.3035     -13579.601    
      8850   145.37668      288.18788     -2338.6595      6.3327052     -2332.3268     -10173.161    
      8900   146.28806      289.99456     -2338.7614      6.3724057     -2332.389      -10550.589    
      8950   145.32752      288.09044     -2338.8127      6.3305641     -2332.4822     -11953.347    
      9000   155.10812      307.47904     -2339.3662      6.7566134     -2332.6095     -11263.407    
      9050   151.88099      301.08173     -2339.0266      6.6160377     -2332.4106     -11011.122    
      9100   143.38036      284.23049     -2338.6738      6.2457446     -2332.4281     -9494.0546    
      9150   158.28388      313.77451     -2339.3401      6.8949516     -2332.4452     -9167.9916    
      9200   154.33396      305.94437     -2339.4962      6.7228903     -2332.7733     -11479.039    
      9250   153.04368      303.38659     -2339.3008      6.6666851     -2332.6341     -9969.6813    
      9300   167.26688      331.58198     -2340.0939      7.286257      -2332.8076     -10229.317    
      9350   158.08495      313.38017     -2339.266       6.8862863     -2332.3797     -10278.922    
      9400   156.33179      309.90479     -2339.1996      6.8099174     -2332.3897     -9814.6599    
      9450   169.51654      336.04161     -2339.7879      7.3842539     -2332.4037     -11437.509    
      9500   168.82646      334.67363     -2339.7688      7.3541936     -2332.4146     -9587.466     
      9550   163.5946       324.30224     -2339.6242      7.1262903     -2332.4979     -11771.664    
      9600   145.51384      288.45978     -2338.8203      6.33868       -2332.4816     -11486.669    
      9650   152.42541      302.16097     -2338.9965      6.6397529     -2332.3567     -11109.549    
      9700   151.07843      299.49077     -2338.9618      6.5810774     -2332.3807     -7891.6221    
      9750   153.81435      304.91434     -2339.1009      6.7002561     -2332.4007     -9227.7807    
      9800   145.47437      288.38155     -2338.7583      6.336961      -2332.4213     -12372.707    
      9850   154.75014      306.7694      -2339.2077      6.7410197     -2332.4667     -12905.634    
      9900   139.6573       276.85006     -2338.5442      6.0835654     -2332.4607     -12715.271    
      9950   154.18833      305.6557      -2339.1886      6.716547      -2332.4721     -12653.048    
     10000   154.88057      307.02796     -2339.3697      6.7467014     -2332.623      -11893.018    
     10050   151.41574      300.15943     -2339.1225      6.5957707     -2332.5267     -11009.619    
     10100   152.00371      301.32499     -2339.2066      6.6213831     -2332.5852     -8965.4733    
     10150   146.3588       290.13479     -2338.9383      6.3754871     -2332.5629     -11372.66     
     10200   143.17703      283.82742     -2338.8223      6.2368874     -2332.5855     -8479.4314    
     10250   155.29626      307.85199     -2339.3743      6.7648088     -2332.6095     -8292.3702    
     10300   160.65088      318.46673     -2339.7983      6.9980596     -2332.8003     -10019.619    
     10350   151.16017      299.65281     -2339.1845      6.5846382     -2332.5999     -11882.252    
     10400   152.57323      302.454       -2339.3306      6.646192      -2332.6844     -9586.4985    
     10450   153.08907      303.47656     -2339.3328      6.6686621     -2332.6642     -12221.365    
     10500   140.59922      278.71727     -2338.8106      6.1245959     -2332.686      -12663.652    
     10550   147.24441      291.89039     -2339.0507      6.4140651     -2332.6366     -9379.998     
     10600   147.25813      291.91758     -2339.0644      6.4146626     -2332.6498     -8834.1706    
     10650   150.53711      298.41768     -2339.2395      6.5574972     -2332.682      -12109.241    
     10700   146.30863      290.03534     -2339.1622      6.3733016     -2332.7889     -11751.048    
     10750   137.78137      273.1313      -2338.7093      6.0018486     -2332.7075     -8090.9655    
     10800   147.97524      293.33915     -2339.1609      6.4459004     -2332.715      -8993.8466    
     10850   153.92107      305.12589     -2339.3363      6.7049049     -2332.6314     -7457.9019    
     10900   131.40042      260.48201     -2338.442       5.7238901     -2332.7181     -11028.852    
     10950   148.83779      295.04903     -2339.3962      6.4834736     -2332.9127     -10058.374    
     11000   158.67172      314.54334     -2339.7408      6.9118461     -2332.8289     -8648.7683    
     11050   160.21786      317.60835     -2339.7534      6.9791973     -2332.7742     -10064.779    
     11100   155.55205      308.35906     -2339.5753      6.7759513     -2332.7993     -10169.383    
     11150   152.59802      302.50313     -2339.4536      6.6472717     -2332.8063     -8925.0232    
     11200   154.01882      305.31967     -2339.8158      6.709163      -2333.1067     -10300.924    
     11250   165.66445      328.40541     -2340.1113      7.2164543     -2332.8948     -9642.346     
     11300   144.68245      286.81169     -2339.5523      6.3024644     -2333.2498     -9438.6939    
     11350   145.21495      287.86727     -2339.2429      6.3256602     -2332.9172     -9868.4462    
     11400   153.39683      304.08666     -2339.5891      6.6820685     -2332.907      -8690.8528    
     11450   139.64246      276.82063     -2338.9968      6.0829187     -2332.9139     -11911.053    
     11500   151.41165      300.15132     -2339.5489      6.5955926     -2332.9533     -9794.2202    
     11550   139.07876      275.70319     -2339.1441      6.0583639     -2333.0857     -11278.663    
     11600   141.80637      281.11027     -2339.0452      6.1771802     -2332.868      -10437.433    
     11650   144.58825      286.62494     -2339.283       6.2983607     -2332.9846     -12731.262    
     11700   153.70128      304.69019     -2339.6969      6.6953306     -2333.0015     -12092.358    
     11750   145.44955      288.33234     -2339.3583      6.3358797     -2333.0224     -11275.872    
     11800   153.55158      304.39343     -2339.7535      6.6888096     -2333.0647     -11046.622    
     11850   150.86956      299.07672     -2339.62        6.571979      -2333.048      -11589.401    
     11900   136.63719      270.86313     -2339.021       5.9520073     -2333.069      -11645.882    
     11950   137.14355      271.86691     -2339.0394      5.9740646     -2333.0653     -11084.49     
     12000   148.92199      295.21594     -2339.5893      6.4871413     -2333.1021     -14579.246    
     12050   147.8669       293.12438     -2339.4884      6.441181      -2333.0472     -11550.573    
     12100   156.77366      310.78073     -2339.6714      6.8291656     -2332.8423     -10310.868    
     12150   150.57604      298.49485     -2339.5395      6.5591929     -2332.9803     -13028.007    
     12200   137.83548      273.23856     -2338.9887      6.0042056     -2332.9845     -9823.704     
     12250   142.80232      283.08461     -2339.3275      6.2205648     -2333.1069     -12666.641    
     12300   148.29569      293.97439     -2339.5293      6.4598593     -2333.0694     -12560.718    
     12350   159.76269      316.70604     -2339.8572      6.9593696     -2332.8978     -10198.253    
     12400   146.52175      290.45782     -2339.253       6.3825853     -2332.8704     -10182.076    
     12450   143.35778      284.18571     -2339.1169      6.2447607     -2332.8721     -11424.149    
     12500   149.34559      296.05567     -2339.4149      6.5055938     -2332.9093     -11121.106    
     12550   155.13809      307.53845     -2339.8869      6.757919      -2333.129      -8772.4742    
     12600   157.54748      312.31472     -2339.9846      6.8628737     -2333.1217     -10911.597    
     12650   180.09259      357.00708     -2340.4947      7.8449538     -2332.6498     -11731.284    
     12700   155.09102      307.44513     -2339.5163      6.7558684     -2332.7605     -8182.9589    
     12750   161.62895      320.40562     -2339.8064      7.0406652     -2332.7657     -9768.8828    
     12800   158.7308       314.66046     -2339.8173      6.9144196     -2332.9029     -10943.707    
     12850   149.43809      296.23903     -2339.5253      6.509623      -2333.0156     -9025.3363    
     12900   164.53304      326.16256     -2339.8989      7.1671695     -2332.7317     -10312.902    
     12950   149.91928      297.19293     -2339.249       6.5305841     -2332.7184     -5936.6469    
     13000   149.81658      296.98934     -2339.2482      6.5261105     -2332.7221     -7167.8361    
     13050   145.77221      288.97197     -2339.1777      6.349935      -2332.8277     -7785.0668    
     13100   138.44287      274.44264     -2339.0686      6.0306642     -2333.0379     -12866.924    
     13150   145.98848      289.4007      -2339.0922      6.3593559     -2332.7328     -10234.054    
     13200   150.11888      297.58861     -2339.3207      6.5392789     -2332.7814     -8549.8731    
     13250   147.61446      292.62396     -2339.2165      6.4301847     -2332.7863     -10046.144    
     13300   167.03169      331.11576     -2340.1777      7.2760121     -2332.9017     -8916.3464    
     13350   149.84404      297.04377     -2339.4717      6.5273065     -2332.9444     -8987.2562    
     13400   155.23208      307.72477     -2339.4128      6.7620131     -2332.6508     -12319.259    
     13450   146.14014      289.70134     -2339.172       6.3659623     -2332.8061     -11044.2      
     13500   146.28395      289.98642     -2339.1713      6.3722267     -2332.7991     -8161.164     
     13550   142.97929      283.43542     -2339.1349      6.2282737     -2332.9066     -12868.234    
     13600   146.74908      290.90847     -2339.4184      6.392488      -2333.0259     -13286.457    
     13650   147.31949      292.03921     -2339.1034      6.4173353     -2332.686      -12284.433    
     13700   158.84211      314.88113     -2339.757       6.9192687     -2332.8378     -12871.311    
     13750   155.18011      307.62175     -2339.5969      6.7597494     -2332.8371     -11370.556    
     13800   154.85573      306.97871     -2339.6425      6.7456192     -2332.8969     -12163.592    
     13850   141.80601      281.10956     -2339.1214      6.1771647     -2332.9443     -12423.147    
     13900   163.82204      324.7531      -2339.8678      7.1361977     -2332.7316     -11617.898    
     13950   160.2367       317.64569     -2339.8625      6.9800178     -2332.8825     -12373.787    
     14000   142.07935      281.65142     -2339.0745      6.1890716     -2332.8854     -12935.632    
     14050   152.17096      301.65655     -2339.5167      6.6286689     -2332.888      -12020.613    
     14100   165.79172      328.65771     -2339.9546      7.2219984     -2332.7326     -12682.034    
     14150   143.50828      284.48406     -2339.2555      6.2513166     -2333.0042     -13519.71     
     14200   153.38247      304.05819     -2339.6122      6.681443      -2332.9307     -12583.124    
     14250   139.4156       276.37093     -2338.9072      6.0730368     -2332.8341     -11699.736    
     14300   129.07117      255.86461     -2338.461       5.6224264     -2332.8386     -11561.821    
     14350   155.94932      309.1466      -2339.5141      6.7932568     -2332.7209     -11247.84     
     14400   150.35405      298.05479     -2339.5603      6.5495228     -2333.0108     -12309.881    
     14450   172.48533      341.92679     -2340.3905      7.5135762     -2332.8769     -10965.303    
     14500   159.33958      315.86729     -2339.7127      6.9409387     -2332.7718     -9828.3935    
     14550   150.85685      299.05153     -2339.3507      6.5714254     -2332.7792     -9892.7864    
     14600   150.87588      299.08925     -2339.2026      6.5722543     -2332.6304     -9412.0857    
     14650   151.08852      299.51077     -2339.6311      6.5815169     -2333.0495     -9715.5996    
     14700   154.90806      307.08244     -2339.6038      6.7478985     -2332.8559     -10028.943    
     14750   152.66317      302.63228     -2339.3035      6.6501096     -2332.6534     -8699.966     
     14800   151.34446      300.01813     -2339.2445      6.5926659     -2332.6519     -8048.6604    
     14850   169.84523      336.6932      -2339.8864      7.3985719     -2332.4878     -8858.63      
     14900   137.42574      272.42632     -2338.9211      5.9863572     -2332.9347     -10798.822    
     14950   158.1998       313.60783     -2339.4146      6.8912889     -2332.5233     -8937.1727    
     15000   164.48254      326.06244     -2339.7957      7.1649693     -2332.6307     -10596.333    
     15050   157.47914      312.17923     -2339.4862      6.8598966     -2332.6263     -9113.1632    
     15100   159.76196      316.7046      -2339.7604      6.9593381     -2332.8011     -9089.8726    
     15150   146.25564      289.93029     -2339.2376      6.3709933     -2332.8666     -10371.701    
     15200   151.18732      299.70663     -2339.5164      6.5858208     -2332.9305     -10060.669    
     15250   152.2973       301.907       -2339.3923      6.6341721     -2332.7581     -11221.226    
     15300   150.04912      297.45032     -2339.1898      6.5362402     -2332.6535     -13240.403    
     15350   158.30942      313.82514     -2339.5608      6.8960642     -2332.6648     -11345.087    
     15400   156.21348      309.67024     -2339.3271      6.8047635     -2332.5223     -9537.3859    
     15450   143.46671      284.40165     -2339.1595      6.2495059     -2332.91       -10538.986    
     15500   144.82121      287.08675     -2339.1536      6.3085086     -2332.8451     -9389.038     
     15550   164.57833      326.25234     -2339.8441      7.1691422     -2332.675      -8161.9862    
     15600   156.15332      309.55099     -2339.4756      6.802143      -2332.6734     -8628.2936    
     15650   163.48139      324.07781     -2339.7333      7.1213586     -2332.612      -13378.199    
     15700   153.75563      304.79793     -2339.3775      6.6976981     -2332.6798     -10204.877    
     15750   148.03523      293.45807     -2339.4349      6.4485136     -2332.9864     -12140.056    
     15800   142.66365      282.80971     -2339.2766      6.2145241     -2333.0621     -12163.75     
     15850   150.09627      297.54378     -2339.4868      6.5382938     -2332.9485     -13690.358    
     15900   158.86833      314.93309     -2339.727       6.9204106     -2332.8066     -10121.054    
     15950   157.32906      311.88173     -2339.5239      6.8533592     -2332.6705     -13032.387    
     16000   155.57304      308.40067     -2339.4586      6.7768656     -2332.6817     -10065.3      
     16050   143.68382      284.83205     -2338.9374      6.2589634     -2332.6785     -9353.5559    
     16100   140.68187      278.88111     -2338.9598      6.1281963     -2332.8316     -11616.596    
     16150   138.75105      275.05355     -2338.9558      6.0440885     -2332.9117     -10088.235    
     16200   148.65076      294.67827     -2339.43        6.4753264     -2332.9547     -12400.695    
     16250   154.36934      306.01451     -2339.257       6.7244316     -2332.5326     -10018.972    
     16300   153.76697      304.82041     -2339.2376      6.6981923     -2332.5394     -9858.8591    
     16350   155.33361      307.92604     -2339.3094      6.7664359     -2332.543      -11490.8      
     16400   157.22892      311.68322     -2339.3825      6.8489971     -2332.5335     -13657.245    
     16450   158.63487      314.47031     -2339.4668      6.9102413     -2332.5565     -11588.95     
     16500   152.60752      302.52196     -2339.1759      6.6476854     -2332.5282     -11180.076    
     16550   147.74152      292.87584     -2338.9641      6.4357196     -2332.5284     -10708.538    
     16600   158.48494      314.17308     -2339.4403      6.9037099     -2332.5366     -11638.566    
     16650   147.88763      293.16547     -2339.3263      6.4420839     -2332.8842     -12588.952    
     16700   160.16675      317.50702     -2339.5337      6.9769707     -2332.5567     -10432.281    
     16750   142.1129       281.71792     -2338.7701      6.1905329     -2332.5795     -8129.5337    
     16800   155.51428      308.28419     -2339.3635      6.774306      -2332.5892     -8064.7267    
     16850   149.41002      296.1834      -2339.203       6.5084005     -2332.6946     -10112.532    
     16900   148.30679      293.9964      -2339.3988      6.4603429     -2332.9384     -10899.394    
     16950   160.29644      317.76413     -2339.7117      6.9826203     -2332.7291     -13741.072    
     17000   148.03198      293.45163     -2339.0662      6.4483719     -2332.6178     -7135.7469    
     17050   148.40288      294.18689     -2339.0916      6.4645287     -2332.6271     -8129.7434    
     17100   168.17717      333.38651     -2339.8178      7.32591       -2332.4919     -8238.0073    
     17150   144.85485      287.15344     -2339.2349      6.3099741     -2332.9249     -8716.1298    
     17200   157.73835      312.69307     -2339.5167      6.8711878     -2332.6456     -9703.5673    
     17250   155.87587      309.00099     -2339.3491      6.7900571     -2332.5591     -8799.1916    
     17300   136.98036      271.54341     -2338.5255      5.9669559     -2332.5585     -11088.547    
     17350   157.2055       311.63679     -2339.4216      6.8479768     -2332.5736     -11450.852    
     17400   159.33539      315.85898     -2339.6759      6.9407561     -2332.7352     -9544.7133    
     17450   156.26526      309.7729      -2339.2416      6.8070194     -2332.4346     -13419.826    
     17500   143.11567      283.70576     -2338.6301      6.2342142     -2332.3959     -10390.8      
     17550   146.51979      290.45394     -2338.7583      6.3825002     -2332.3758     -12595.955    
     17600   145.14777      287.73411     -2338.8751      6.3227339     -2332.5524     -12114.144    
     17650   151.47774      300.28234     -2339.2524      6.5984717     -2332.6539     -11411.111    
     17700   153.44801      304.18812     -2339.1962      6.6842981     -2332.5119     -14052.705    
     17750   151.68122      300.68571     -2339.178       6.6073353     -2332.5706     -14697.377    
     17800   145.13913      287.71699     -2339.2437      6.3223577     -2332.9214     -12288.657    
     17850   153.95308      305.18934     -2339.3919      6.7062991     -2332.6856     -9666.8719    
     17900   156.08852      309.42253     -2339.3297      6.7993202     -2332.5303     -11524.495    
     17950   148.38555      294.15254     -2339.0034      6.4637739     -2332.5396     -9488.646     
     18000   169.20265      335.41937     -2339.8844      7.3705805     -2332.5139     -13150.898    
     18050   157.44238      312.10637     -2339.7023      6.8582954     -2332.844      -11285.558    
     18100   154.43475      306.14417     -2339.2901      6.7272809     -2332.5628     -9430.5579    
     18150   158.04616      313.30327     -2339.3188      6.8845964     -2332.4342     -10669.92     
     18200   153.15141      303.60016     -2339.1223      6.6713781     -2332.4509     -10299.098    
     18250   159.99713      317.17077     -2339.4293      6.9695818     -2332.4597     -8863.6936    
     18300   146.11903      289.65949     -2339.1665      6.3650426     -2332.8014     -11447.976    
     18350   166.12453      329.31746     -2339.4791      7.2364958     -2332.2426     -13130.021    
     18400   144.10965      285.67619     -2338.687       6.2775128     -2332.4095     -13257.692    
     18450   145.5513       288.53405     -2338.7709      6.340312      -2332.4306     -13603.082    
     18500   150.59023      298.52299     -2339.0637      6.5598112     -2332.5039     -9635.5282    
     18550   149.20253      295.77208     -2339.2493      6.4993621     -2332.75       -11885.447    
     18600   152.92348      303.14831     -2339.4102      6.6614491     -2332.7488     -10460.824    
     18650   149.79214      296.94088     -2339.2721      6.5250456     -2332.747      -11375.448    
     18700   165.08349      327.25374     -2339.6015      7.1911472     -2332.4104     -11740.559    
     18750   153.62513      304.53923     -2339.1185      6.6920135     -2332.4265     -8811.137     
     18800   169.66499      336.33589     -2339.8362      7.3907204     -2332.4455     -9448.6102    
     18850   150.23697      297.82269     -2339.3075      6.5444228     -2332.7631     -10919.774    
     18900   146.6754       290.76242     -2339.2037      6.3892786     -2332.8144     -13376.734    
     18950   159.50853      316.20221     -2339.7999      6.9482985     -2332.8516     -11658.376    
     19000   160.4014       317.9722      -2339.5343      6.9871925     -2332.5471     -10677.385    
     19050   159.33794      315.86404     -2339.52        6.9408674     -2332.5791     -9877.5637    
     19100   149.57719      296.51477     -2339.1089      6.5156823     -2332.5932     -10212.476    
     19150   147.47323      292.34398     -2339.3647      6.4240323     -2332.9407     -9396.8522    
     19200   137.68996      272.95009     -2339.0216      5.9978667     -2333.0238     -11216.736    
     19250   145.39091      288.2161      -2338.903       6.3333253     -2332.5697     -12563.262    
     19300   148.56932      294.51684     -2339.0708      6.4717791     -2332.5991     -10586.729    
     19350   152.10082      301.5175      -2339.251       6.6256133     -2332.6254     -9054.6378    
     19400   148.94565      295.26285     -2339.6264      6.4881722     -2333.1383     -12603.762    
     19450   157.41217      312.04648     -2339.6608      6.8569795     -2332.8038     -12914.22     
     19500   146.79486      290.99921     -2339.2107      6.3944821     -2332.8163     -12650.478    
     19550   152.91022      303.12203     -2339.2796      6.6608717     -2332.6188     -13290.943    
     19600   159.3141       315.81677     -2339.905       6.9398287     -2332.9652     -11472.038    
     19650   155.22708      307.71487     -2339.5731      6.7617956     -2332.8113     -7902.3356    
     19700   138.02745      273.61912     -2338.8515      6.0125681     -2332.839      -8733.0559    
     19750   163.98959      325.08525     -2340.1209      7.1434963     -2332.9774     -11083.92     
     19800   144.27606      286.00606     -2339.6876      6.2847615     -2333.4028     -11476.33     
     19850   135.72245      269.0498      -2339.0846      5.9121609     -2333.1725     -9568.4372    
     19900   160.74259      318.64854     -2340.0199      7.0020546     -2333.0179     -10376.367    
     19950   149.90902      297.17259     -2339.5113      6.5301372     -2332.9812     -8439.9763    
     20000   144.60345      286.65508     -2339.3085      6.299023      -2333.0095     -12674.823    
     20050   165.81151      328.69693     -2340.3439      7.2228601     -2333.1211     -11793.606    
     20100   145.81749      289.06173     -2340.0173      6.3519075     -2333.6654     -8642.3829    
     20150   147.68066      292.75519     -2339.9948      6.4330683     -2333.5618     -9718.8724    
     20200   144.91423      287.27115     -2339.7791      6.3125608     -2333.4665     -9759.3605    
     20250   153.30259      303.89985     -2340.1482      6.6779635     -2333.4702     -10200.387    
     20300   151.75354      300.82908     -2339.9361      6.6104857     -2333.3256     -12418.017    
     20350   163.2107       323.54122     -2340.4957      7.1095675     -2333.3861     -7613.4512    
     20400   139.91644      277.36377     -2339.6959      6.0948539     -2333.6011     -11512.964    
     20450   152.58951      302.48627     -2340.3994      6.6469012     -2333.7525     -9482.3337    
     20500   148.05162      293.49056     -2340.2057      6.4492276     -2333.7564     -9933.8681    
     20550   144.54388      286.53699     -2340.0684      6.2964281     -2333.7719     -10763.914    
     20600   155.10129      307.46549     -2340.6104      6.7563158     -2333.8541     -9472.0896    
     20650   163.75778      324.62572     -2341.0356      7.1333984     -2333.9022     -9609.8486    
     20700   136.42665      270.44577     -2339.8823      5.9428362     -2333.9394     -8337.6227    
     20750   145.5679       288.56696     -2340.3065      6.3410352     -2333.9655     -11964.63     
     20800   135.02321      267.66366     -2339.8759      5.8817015     -2333.9942     -9552.1981    
     20850   135.59813      268.80335     -2339.9183      5.9067453     -2334.0115     -11333.719    
     20900   138.52498      274.60541     -2340.017       6.0342409     -2333.9828     -12446.388    
     20950   157.6276       312.47353     -2340.8779      6.8663636     -2334.0116     -11433.876    
     21000   129.67825      257.06806     -2339.6675      5.6488713     -2334.0186     -11267.308    
     21050   157.44414      312.10985     -2340.2582      6.8583719     -2333.3998     -10533.311    
     21100   148.63194      294.64096     -2339.9035      6.4745066     -2333.429      -7057.2925    
     21150   140.69617      278.90946     -2339.5691      6.1288192     -2333.4403     -8830.8576    
     21200   156.25909      309.76066     -2340.3598      6.8067504     -2333.5531     -11253.175    
     21250   150.11994      297.5907      -2340.7294      6.5393248     -2334.19       -12111.403    
     21300   149.80722      296.97079     -2339.9606      6.5257028     -2333.4349     -9097.6722    
     21350   130.74918      259.19102     -2338.9932      5.6955216     -2333.2976     -12077.852    
     21400   136.15825      269.91371     -2339.2357      5.9311446     -2333.3046     -11912.109    
     21450   170.12089      337.23966     -2340.8         7.41058       -2333.3894     -11762.377    
     21500   149.13092      295.63012     -2340.0232      6.4962427     -2333.527      -12807.376    
     21550   145.4885       288.40955     -2339.7007      6.3375762     -2333.3631     -11669.326    
     21600   130.59548      258.88633     -2339.094       5.6888263     -2333.4051     -11996.417    
     21650   136.24947      270.09454     -2339.2238      5.935118      -2333.2887     -12786.503    
     21700   166.38482      329.83343     -2340.493       7.2478339     -2333.2452     -12783.18     
     21750   163.4364       323.98862     -2340.6406      7.1193987     -2333.5212     -12151.429    
     21800   139.6418       276.81934     -2339.4798      6.0828903     -2333.3969     -7913.6165    
     21850   146.04819      289.51906     -2339.7576      6.3619569     -2333.3957     -10305.655    
     21900   162.212        321.56144     -2340.5463      7.0660632     -2333.4802     -11580.342    
     21950   156.9207       311.07222     -2340.1052      6.8355708     -2333.2696     -11332.777    
     22000   143.91553      285.29138     -2339.5259      6.2690568     -2333.2569     -13120.464    
     22050   122.33682      242.51475     -2338.5834      5.3290736     -2333.2543     -13669.931    
     22100   129.51634      256.7471      -2338.8629      5.6418184     -2333.2211     -16544.645    
     22150   144.14037      285.73708     -2339.6689      6.2788509     -2333.39       -15234.056    
     22200   145.99847      289.42049     -2339.5838      6.3597908     -2333.224      -9719.7518    
     22250   149.21609      295.79896     -2339.6967      6.4999528     -2333.1967     -11305.827    
     22300   158.83425      314.86554     -2340.0021      6.9189262     -2333.0831     -9825.6298    
     22350   158.16665      313.54211     -2340.5515      6.8898449     -2333.6617     -10969.334    
     22400   148.14261      293.67094     -2339.6107      6.4531912     -2333.1575     -7011.7048    
     22450   137.94927      273.46414     -2339.1669      6.0091625     -2333.1577     -8117.588     
     22500   156.96897      311.16791     -2340.1169      6.8376735     -2333.2792     -8979.7032    
     22550   169.44263      335.89509     -2340.4239      7.3810342     -2333.0428     -12049.682    
     22600   138.09821      273.7594      -2339.0946      6.0156505     -2333.0789     -10762.072    
     22650   148.72922      294.8338      -2339.687       6.4787442     -2333.2083     -10093.306    
     22700   132.01945      261.70914     -2338.916       5.7508555     -2333.1652     -12895.756    
     22750   144.88866      287.22047     -2339.3922      6.311447      -2333.0808     -11177.793    
     22800   174.6457       346.20942     -2340.6275      7.6076836     -2333.0198     -10078.178    
     22850   154.82687      306.92151     -2340.3089      6.7443622     -2333.5646     -12446.179    
     22900   173.2342       343.41133     -2340.676       7.5461977     -2333.1298     -10310.419    
     22950   142.17608      281.84316     -2339.318       6.193285      -2333.1247     -10866.074    
     23000   158.06323      313.33711     -2340.1279      6.8853402     -2333.2425     -9323.403     
     23050   148.47676      294.33335     -2340.4098      6.4677471     -2333.942      -11702.437    
     23100   142.70311      282.88794     -2339.5316      6.2162431     -2333.3154     -11787.581    
     23150   149.6547       296.66843     -2339.4948      6.5190587     -2332.9758     -14335.626    
     23200   144.56564      286.58012     -2339.2541      6.2973759     -2332.9568     -10551.5      
     23250   139.56891      276.67484     -2339.231       6.0797151     -2333.1513     -11787.153    
     23300   156.82999      310.89238     -2339.9523      6.8316191     -2333.1207     -12560.036    
     23350   165.81256      328.69901     -2340.2893      7.2229059     -2333.0664     -8877.0619    
     23400   152.92861      303.15848     -2339.7234      6.6616724     -2333.0617     -12529.459    
     23450   146.29396      290.00627     -2339.4366      6.3726629     -2333.0639     -11332.768    
     23500   149.13805      295.64425     -2339.6834      6.4965532     -2333.1869     -12278.557    
     23550   142.70558      282.89282     -2339.3184      6.2163504     -2333.1021     -9729.4652    
     23600   144.93649      287.31527     -2339.357       6.3135304     -2333.0434     -13258.941    
     23650   139.76411      277.0618      -2339.197       6.0882182     -2333.1088     -10366.3      
     23700   152.85453      303.01162     -2339.6874      6.6584454     -2333.0289     -13280.527    
     23750   152.32936      301.97055     -2339.6677      6.6355688     -2333.0322     -11695.516    
     23800   153.17504      303.64699     -2339.6504      6.6724071     -2332.978      -11999.698    
     23850   153.87302      305.03063     -2339.6423      6.7028115     -2332.9394     -14416.902    
     23900   156.87438      310.98038     -2339.7326      6.8335527     -2332.899      -10045.388    
     23950   152.80993      302.92322     -2339.9222      6.656503      -2333.2657     -10219.653    
     24000   146.06961      289.56153     -2339.2986      6.3628901     -2332.9357     -12284.892    
     24050   133.35559      264.35784     -2338.6789      5.8090586     -2332.8698     -10589.578    
     24100   139.72933      276.99285     -2339.0008      6.0867031     -2332.9141     -13151.962    
     24150   142.89196      283.2623      -2339.1688      6.2244694     -2332.9443     -9216.9816    
     24200   149.73388      296.82539     -2339.4663      6.5225079     -2332.9438     -13215.092    
     24250   147.58497      292.5655      -2339.3329      6.4289        -2332.904      -12439.737    
     24300   147.15934      291.72176     -2339.3413      6.4103594     -2332.931      -10932.941    
     24350   155.19128      307.64389     -2339.9371      6.7602359     -2333.1769     -13409.422    
     24400   146.72356      290.85788     -2339.3674      6.3913764     -2332.976      -11985.127    
     24450   161.32679      319.80664     -2339.8591      7.027503      -2332.8316     -11899.47     
     24500   149.59921      296.55844     -2339.2842      6.5166417     -2332.7676     -13583.047    
     24550   157.61287      312.44433     -2339.6941      6.8657219     -2332.8284     -15511.177    
     24600   138.10708      273.77698     -2338.9276      6.0160368     -2332.9115     -14616.876    
     24650   151.70581      300.73446     -2339.3231      6.6084066     -2332.7147     -12189.727    
     24700   142.55527      282.59486     -2338.9762      6.209803      -2332.7664     -13797.234    
     24750   142.65129      282.78521     -2338.989       6.2139857     -2332.775      -13592.968    
     24800   149.59218      296.54451     -2339.2472      6.5163356     -2332.7308     -12968.474    
     24850   147.46417      292.32602     -2339.1826      6.4236377     -2332.759      -13308.731    
     24900   147.02387      291.4532      -2339.167       6.4044581     -2332.7625     -13531.729    
     24950   141.61746      280.73578     -2338.8445      6.1689512     -2332.6756     -12121.137    
     25000   152.08138      301.47897     -2339.3712      6.6247665     -2332.7464     -11806.221    
     25050   145.7848       288.99692     -2339.1032      6.3504833     -2332.7527     -13035.062    
     25100   160.28742      317.74624     -2339.6531      6.9822273     -2332.6709     -9805.5977    
     25150   145.69573      288.82035     -2339.0967      6.3466033     -2332.7501     -11578.862    
     25200   146.73742      290.88535     -2339.1554      6.39198       -2332.7634     -12648.008    
     25250   155.44923      308.15523     -2339.4633      6.7714723     -2332.6918     -10012.631    
     25300   161.99084      321.12302     -2339.7823      7.0564294     -2332.7259     -10864.247    
     25350   164.27761      325.6562      -2339.7409      7.1560426     -2332.5848     -7544.6428    
     25400   157.55436      312.32836     -2339.4662      6.8631735     -2332.603      -11563.505    
     25450   151.43102      300.18972     -2339.2957      6.5964363     -2332.6993     -8547.4819    
     25500   164.36004      325.8196      -2339.757       7.1596332     -2332.5974     -13297.073    
     25550   160.84059      318.84281     -2339.618       7.0063236     -2332.6116     -8789.6032    
     25600   152.01453      301.34645     -2339.2094      6.6218547     -2332.5875     -11305.884    
     25650   141.93622      281.36768     -2338.7545      6.1828365     -2332.5716     -10651.52     
     25700   154.37537      306.02647     -2339.3305      6.7246944     -2332.6058     -9249.9914    
     25750   150.04074      297.43371     -2339.1341      6.5358752     -2332.5982     -12741.262    
     25800   148.47834      294.33647     -2339.0643      6.4678158     -2332.5965     -11021.567    
     25850   159.26958      315.72852     -2339.3552      6.9378894     -2332.4173     -9593.5085    
     25900   154.37829      306.03226     -2339.2263      6.7248216     -2332.5015     -11707.552    
     25950   145.48143      288.39554     -2338.8738      6.3372685     -2332.5365     -11413.025    
     26000   134.87144      267.36279     -2338.7962      5.8750901     -2332.9211     -14082.631    
     26050   154.57922      306.43057     -2339.2607      6.7335742     -2332.5272     -11978.757    
     26100   151.62688      300.57799     -2339.0557      6.6049682     -2332.4507     -10293.792    
     26150   158.00803      313.22768     -2339.1692      6.8829353     -2332.2863     -11686.457    
     26200   150.11056      297.57211     -2339.1631      6.5389163     -2332.6242     -9886.6914    
     26250   153.66685      304.62194     -2339.1713      6.6938309     -2332.4775     -11884.936    
     26300   149.83666      297.02914     -2338.9777      6.5269851     -2332.4507     -15034.45     
     26350   147.46633      292.33031     -2339.0959      6.4237318     -2332.6721     -10387.408    
     26400   153.62557      304.5401      -2339.1614      6.6920325     -2332.4693     -10423.683    
     26450   159.84788      316.87491     -2339.4889      6.9630805     -2332.5258     -10139.687    
     26500   150.62289      298.58773     -2339.1957      6.5612339     -2332.6345     -11647.143    
     26550   170.07905      337.15671     -2339.6582      7.4087574     -2332.2494     -12189.635    
     26600   144.69983      286.84614     -2338.7629      6.3032215     -2332.4596     -12939.139    
     26650   139.66497      276.86526     -2338.6102      6.0838995     -2332.5263     -10591.529    
     26700   154.06371      305.40864     -2338.8778      6.7111181     -2332.1667     -12953.355    
     26750   161.925        320.99249     -2339.2517      7.0535612     -2332.1982     -9350.1381    
     26800   153.47279      304.23724     -2338.9191      6.6853774     -2332.2337     -11367.822    
     26850   159.25252      315.69471     -2339.063       6.9371464     -2332.1258     -11920.483    
     26900   160.61903      318.4036      -2339.0434      6.9966723     -2332.0467     -10715.339    
     26950   146.81735      291.04381     -2338.6157      6.395462      -2332.2202     -13055.805    
     27000   161.13341      319.42328     -2339.1501      7.0190789     -2332.131      -10470.37     
     27050   160.66973      318.50411     -2339.0956      6.9988809     -2332.0968     -10317.507    
     27100   144.82068      287.0857      -2338.4859      6.3084856     -2332.1774     -9290.5769    
     27150   155.67883      308.61039     -2339.1493      6.7814741     -2332.3678     -10248.598    
     27200   152.23662      301.78671     -2338.9678      6.6315289     -2332.3363     -11403.335    
     27250   162.04639      321.23313     -2339.1582      7.058849      -2332.0993     -12391.636    
     27300   143.37174      284.21339     -2338.4142      6.2453689     -2332.1688     -13681.664    
     27350   147.78743      292.96686     -2338.4233      6.4377195     -2331.9855     -11384.229    
     27400   147.70284      292.79916     -2338.3144      6.4340345     -2331.8804     -14988.38     
     27450   159.95578      317.08882     -2338.9719      6.9677809     -2332.0041     -13905.486    
     27500   157.49489      312.21046     -2338.7239      6.8605829     -2331.8634     -14735.667    
     27550   143.62003      284.70559     -2338.1318      6.2561845     -2331.8756     -10140.881    
     27600   157.77515      312.76603     -2338.9002      6.872791      -2332.0274     -14584.282    
     27650   151.058        299.45027     -2338.4633      6.5801876     -2331.8831     -12437.432    
     27700   149.03519      295.44034     -2338.506       6.4920724     -2332.0139     -12941.145    
     27750   154.30193      305.88089     -2338.889       6.7214953     -2332.1675     -11012.15     
     27800   154.28767      305.85261     -2339.2357      6.7208741     -2332.5148     -8739.1884    
     27850   143.46666      284.40155     -2338.2393      6.2495036     -2331.9898     -11109.252    
     27900   156.33288      309.90693     -2338.9965      6.8099646     -2332.1866     -8645.2914    
     27950   156.26033      309.76313     -2338.7934      6.8068046     -2331.9866     -11983.223    
     28000   155.66847      308.58986     -2338.8177      6.7810229     -2332.0367     -10911.604    
     28050   157.70062      312.61829     -2339.0548      6.8695446     -2332.1853     -11238.746    
     28100   158.37514      313.95543     -2338.8785      6.8989271     -2331.9796     -14573.485    
     28150   148.38174      294.14498     -2338.5771      6.4636079     -2332.1135     -12864.798    
     28200   152.17043      301.65551     -2338.8014      6.6286459     -2332.1727     -11487.122    
     28250   157.17392      311.57418     -2338.7246      6.846601      -2331.878      -11560.549    
     28300   173.76152      344.45666     -2339.5894      7.569168      -2332.0202     -11336.783    
     28350   157.22408      311.67362     -2339.097       6.8487862     -2332.2482     -10622.201    
     28400   153.82405      304.93355     -2338.7254      6.7006784     -2332.0247     -13605.365    
     28450   151.13719      299.60726     -2338.6609      6.5836371     -2332.0772     -10400.878    
     28500   158.35506      313.91561     -2339.0098      6.8980522     -2332.1118     -9891.225     
     28550   164.83088      326.75298     -2339.5081      7.1801434     -2332.3279     -10957.23     
     28600   165.79726      328.66869     -2339.392       7.2222397     -2332.1697     -13131.819    
     28650   147.7747       292.94161     -2338.5426      6.4371647     -2332.1055     -10513.047    
     28700   173.00805      342.96302     -2339.724       7.5363465     -2332.1877     -11740.482    
     28750   154.64455      306.56009     -2338.9681      6.7364202     -2332.2317     -11288.312    
     28800   168.27799      333.58637     -2339.5693      7.3303019     -2332.239      -11619.123    
     28850   147.86306      293.11677     -2338.6256      6.4410138     -2332.1845     -11208.618    
     28900   159.29725      315.78337     -2338.8703      6.9390947     -2331.9312     -11522.16     
     28950   156.0993       309.44391     -2339.112       6.79979       -2332.3122     -11650.742    
     29000   147.57709      292.54988     -2338.5442      6.4285568     -2332.1157     -14055.6      
     29050   146.93758      291.28215     -2338.6882      6.4006994     -2332.2875     -7332.9331    
     29100   145.25059      287.93793     -2338.5396      6.3272128     -2332.2124     -12468.862    
     29150   168.69636      334.41573     -2339.6975      7.3485264     -2332.349      -11993.881    
     29200   146.60214      290.61718     -2338.6863      6.3860872     -2332.3002     -11048.099    
     29250   157.68905      312.59536     -2338.9769      6.8690406     -2332.1079     -12299.502    
     29300   149.29039      295.94624     -2338.913       6.5031892     -2332.4098     -10215.034    
     29350   143.45098      284.37047     -2338.72        6.2488206     -2332.4712     -10671.438    
     29400   153.22286      303.74179     -2339.2076      6.6744903     -2332.5331     -11881.348    
     29450   148.95178      295.275       -2338.7485      6.4884391     -2332.2601     -12694.182    
     29500   146.42934      290.27462     -2338.814       6.3785598     -2332.4354     -9665.9487    
     29550   156.11322      309.4715      -2339.2586      6.8003964     -2332.4582     -12330.252    
     29600   172.16287      341.28758     -2339.8968      7.4995299     -2332.3973     -10425.577    
     29650   157.64902      312.516       -2339.5083      6.8672967     -2332.641      -11474.999    
     29700   139.41642      276.37256     -2338.6669      6.0730726     -2332.5939     -12506.305    
     29750   147.84332      293.07764     -2339.0648      6.4401538     -2332.6247     -10083.984    
     29800   148.10046      293.58739     -2339.1515      6.4513553     -2332.7001     -12445.734    
     29850   150.3103       297.96806     -2339.1362      6.547617      -2332.5886     -11169.61     
     29900   163.44851      324.01263     -2339.4484      7.1199264     -2332.3285     -15161.767    
     29950   163.69628      324.5038      -2339.5313      7.1307193     -2332.4005     -8673.9033    
     30000   164.83516      326.76147     -2339.76        7.1803299     -2332.5797     -8201.1398    
     30050   158.31246      313.83117     -2339.4472      6.8961967     -2332.551      -10888.205    
     30100   140.33172      278.187       -2338.7716      6.1129435     -2332.6586     -9848.7418    
     30150   150.92231      299.18129     -2339.3472      6.5742769     -2332.7729     -9632.2443    
     30200   156.96324      311.15654     -2339.2434      6.8374237     -2332.406      -8995.3184    
     30250   151.74498      300.81211     -2339.3303      6.610113      -2332.7202     -9207.0664    
     30300   152.86368      303.02977     -2339.0494      6.6588442     -2332.3906     -9119.3503    
     30350   147.13123      291.66602     -2338.8985      6.4091346     -2332.4893     -11594.599    
     30400   157.08739      311.40266     -2339.3045      6.8428319     -2332.4617     -12843.732    
     30450   164.8708       326.83212     -2339.6207      7.1818824     -2332.4388     -9597.1222    
     30500   146.89524      291.19822     -2339.0903      6.3988551     -2332.6914     -9944.5415    
     30550   163.00614      323.13569     -2339.6121      7.1006563     -2332.5114     -9807.2154    
     30600   150.43407      298.21342     -2339.21        6.5530087     -2332.657      -10394.651    
     30650   141.56857      280.63887     -2338.7795      6.1668215     -2332.6126     -11224.55     
     30700   148.64612      294.66908     -2339.2089      6.4751245     -2332.7338     -12786.952    
     30750   148.17242      293.73002     -2339.0329      6.4544895     -2332.5784     -13835.925    
     30800   171.67186      340.31422     -2339.9076      7.478141      -2332.4295     -10931.493    
     30850   163.72818      324.56704     -2339.6294      7.132109      -2332.4973     -10205.12     
     30900   164.1815       325.46568     -2339.6765      7.151856      -2332.5246     -10741.427    
     30950   160.09717      317.36911     -2339.2078      6.97394       -2332.2339     -11944.935    
     31000   156.49297      310.22431     -2339.4589      6.8169387     -2332.6419     -11011.469    
     31050   167.17765      331.40511     -2339.5911      7.2823703     -2332.3088     -14893.077    
     31100   138.5966       274.74738     -2338.6044      6.0373606     -2332.5671     -12229.237    
     31150   157.98204      313.17616     -2339.4579      6.8818034     -2332.5761     -10846.311    
     31200   158.83821      314.87339     -2339.5633      6.9190987     -2332.6442     -12860.172    
     31250   160.63199      318.4293      -2339.2457      6.9972369     -2332.2485     -13062.414    
     31300   150.96713      299.27012     -2339.0149      6.576229      -2332.4387     -9767.2199    
     31350   143.24754      283.96718     -2338.4397      6.2399587     -2332.1997     -13577.536    
     31400   149.62658      296.61269     -2338.9924      6.5178339     -2332.4746     -12987.164    
     31450   148.80445      294.98294     -2338.8362      6.4820214     -2332.3542     -9466.6015    
     31500   165.40848      327.89798     -2339.531       7.2053039     -2332.3257     -11184.307    
     31550   158.09057      313.39131     -2339.5841      6.886531      -2332.6976     -11928.146    
     31600   154.12817      305.53643     -2339.2294      6.7139263     -2332.5154     -10656.511    
     31650   152.78304      302.8699      -2338.9873      6.6553313     -2332.332      -9439.3491    
     31700   158.06771      313.34598     -2339.2458      6.885535      -2332.3603     -9878.2342    
     31750   143.43661      284.34198     -2338.8513      6.2481946     -2332.6031     -11332.017    
     31800   161.06462      319.28693     -2339.2598      7.0160827     -2332.2437     -11194.714    
     31850   156.42191      310.08343     -2339.1423      6.8138429     -2332.3284     -12304.205    
     31900   160.28335      317.73818     -2339.3731      6.9820501     -2332.3911     -11755.357    
     31950   139.43421      276.40781     -2338.3997      6.0738473     -2332.3258     -11151.582    
     32000   143.54979      284.56635     -2338.7         6.2531249     -2332.4469     -12133.599    
     32050   148.08902      293.56471     -2338.8064      6.450857      -2332.3556     -12188.284    
     32100   151.17854      299.68922     -2339.1154      6.5854381     -2332.53       -9165.1219    
     32150   153.10157      303.50135     -2339.1054      6.6692069     -2332.4362     -9796.6082    
     32200   149.71947      296.79684     -2338.9453      6.5218804     -2332.4234     -8849.7909    
     32250   157.19121      311.60845     -2339.3033      6.8473541     -2332.456      -12593.879    
     32300   162.57955      322.29005     -2339.2395      7.082074      -2332.1574     -10311.768    
     32350   150.64648      298.6345      -2338.9981      6.5622615     -2332.4359     -9918.8943    
     32400   147.86865      293.12786     -2338.9307      6.4412574     -2332.4895     -12242.686    
     32450   155.94043      309.12896     -2339.3009      6.7928693     -2332.508      -9323.1785    
     32500   148.60421      294.58599     -2338.8575      6.4732986     -2332.3842     -10583.782    
     32550   145.25295      287.94262     -2338.4371      6.3273157     -2332.1098     -12430.128    
     32600   173.78265      344.49855     -2339.9009      7.5700884     -2332.3308     -10670.849    
     32650   146.99199      291.39001     -2338.8402      6.4030694     -2332.4372     -12724.448    
     32700   153.01913      303.33793     -2339.2575      6.6656157     -2332.5919     -9420.063     
     32750   153.45147      304.19498     -2339.2129      6.6844489     -2332.5285     -9787.1813    
     32800   155.84414      308.93809     -2339.1234      6.7886749     -2332.3347     -10451.916    
     32850   158.78624      314.77037     -2339.5502      6.9168349     -2332.6334     -11501.606    
     32900   151.41921      300.16632     -2338.9597      6.5959222     -2332.3638     -9340.8506    
     32950   145.36886      288.1724      -2338.9007      6.332365      -2332.5684     -10919.667    
     33000   166.77738      330.61163     -2339.32        7.2649341     -2332.0551     -11342.465    
     33050   157.61162      312.44186     -2338.651       6.8656676     -2331.7854     -12797.121    
     33100   145.86449      289.1549      -2338.1481      6.3539547     -2331.7942     -13466.226    
     33150   132.99329      263.63964     -2337.6001      5.7932767     -2331.8068     -12612.173    
     33200   155.08244      307.42813     -2338.6988      6.7554948     -2331.9433     -12701.488    
     33250   146.91901      291.24534     -2338.5639      6.3998905     -2332.164      -12482.014    
     33300   145.34877      288.13256     -2338.6609      6.3314895     -2332.3295     -11138.886    
     33350   163.32078      323.75944     -2339.1071      7.1143626     -2331.9928     -11035.36     
     33400   168.93379      334.88639     -2339.0172      7.3588688     -2331.6583     -13026.815    
     33450   163.85975      324.82786     -2338.7556      7.1378404     -2331.6178     -10256.846    
     33500   161.11108      319.37901     -2338.6489      7.0181062     -2331.6308     -6322.9349    
     33550   168.18574      333.40349     -2339.0227      7.3262833     -2331.6964     -12591.107    
     33600   145.92869      289.28217     -2338.6068      6.3567515     -2332.2501     -12130.467    
     33650   170.79631      338.57856     -2339.272       7.4400014     -2331.832      -9084.8391    
     33700   157.52008      312.26039     -2338.6019      6.86168       -2331.7402     -8660.9722    
     33750   156.51164      310.26132     -2338.5728      6.8177519     -2331.7551     -11076.971    
     33800   152.08484      301.48583     -2338.6255      6.6249173     -2332.0006     -9007.6586    
     33850   156.81778      310.86819     -2339.0649      6.8310875     -2332.2339     -9453.0298    
     33900   169.75166      336.5077      -2339.1472      7.3944959     -2331.7527     -11669.382    
     33950   143.74215      284.94768     -2338.0371      6.2615044     -2331.7756     -8605.1963    
     34000   163.5937       324.30045     -2338.9218      7.126251      -2331.7955     -8354.5281    
     34050   167.21915      331.48737     -2339.4379      7.2841779     -2332.1538     -12155.98     
     34100   168.15442      333.34141     -2339.59        7.324919      -2332.2651     -8800.1044    
     34150   153.46377      304.21935     -2338.8789      6.6849844     -2332.1939     -10455.873    
     34200   158.85543      314.90753     -2338.7522      6.9198488     -2331.8324     -11674.724    
     34250   168.00638      333.04794     -2338.7461      7.3184702     -2331.4276     -13558.53     
     34300   155.27438      307.80863     -2338.2032      6.763856      -2331.4393     -11486.944    
     34350   161.85784      320.85936     -2338.615       7.0506358     -2331.5644     -9334.5789    
     34400   156.12298      309.49086     -2338.3187      6.8008216     -2331.5179     -8468.5246    
     34450   154.9565       307.17847     -2338.4595      6.7500088     -2331.7095     -13314.207    
     34500   155.39742      308.05252     -2338.4301      6.7692153     -2331.6609     -9300.4908    
     34550   172.91637      342.78128     -2339.1177      7.5323528     -2331.5853     -11282.613    
     34600   166.55379      330.16839     -2338.745       7.2551944     -2331.4898     -10040.973    
[...]
    191150   170.91189      338.80768     -2344.6258      7.4450361     -2337.1807     -16859.138    
    191200   159.37864      315.94472     -2344.1469      6.9426401     -2337.2042     -10195.446    
    191250   168.39879      333.82583     -2344.5302      7.3355639     -2337.1946     -14698.456    
    191300   155.34138      307.94144     -2343.9508      6.7667744     -2337.1841     -12326.703    
    191350   155.08079      307.42486     -2343.9675      6.755423      -2337.2121     -13585.079    
    191400   146.73041      290.87146     -2343.6455      6.3916749     -2337.2538     -14478.289    
    191450   170.75694      338.50051     -2344.5803      7.4382863     -2337.142      -14866.508    
    191500   147.03185      291.46902     -2343.7521      6.4048057     -2337.3473     -12141.347    
    191550   149.11172      295.59207     -2343.6652      6.4954064     -2337.1698     -13650.639    
    191600   167.85138      332.74067     -2344.6513      7.3117182     -2337.3396     -12144.349    
    191650   160.81868      318.79938     -2344.3669      7.0053692     -2337.3616     -11026.275    
    191700   164.0557       325.2163      -2344.5823      7.146376      -2337.4359     -10857.582    
    191750   161.05472      319.2673      -2344.1067      7.0156514     -2337.091      -9330.3023    
    191800   167.04943      331.15093     -2344.5522      7.2767848     -2337.2754     -11357.779    
    191850   166.05076      329.17122     -2344.4524      7.2332823     -2337.2191     -12639.416    
    191900   154.93313      307.13214     -2343.9848      6.7489906     -2337.2358     -10087.357    
    191950   154.41032      306.09576     -2343.9934      6.7262169     -2337.2671     -8292.5064    
    192000   153.5825       304.45473     -2343.9949      6.6901566     -2337.3047     -11899.452    
    192050   158.04563      313.30221     -2344.1046      6.8845732     -2337.22       -13809.354    
    192100   157.62502      312.46842     -2344.133       6.8662512     -2337.2667     -8702.6806    
    192150   147.61408      292.62321     -2343.7028      6.4301682     -2337.2727     -10616.551    
    192200   166.04899      329.1677      -2344.5588      7.233205      -2337.3255     -10705.593    
    192250   158.63307      314.46673     -2344.1519      6.9101625     -2337.2417     -9763.3495    
    192300   154.47651      306.22696     -2343.9304      6.7291        -2337.2013     -11166.217    
    192350   165.06115      327.20946     -2344.4384      7.1901742     -2337.2482     -9087.0549    
    192400   151.78828      300.89794     -2343.9487      6.611999      -2337.3367     -10333.436    
    192450   159.98444      317.14562     -2344.2888      6.9690291     -2337.3198     -11781.235    
    192500   158.23505      313.67772     -2344.1651      6.8928247     -2337.2723     -10004.617    
    192550   166.67389      330.40648     -2344.6046      7.2604263     -2337.3442     -12758.875    
    192600   156.11865      309.48227     -2344.1387      6.800633      -2337.3381     -11865.732    
    192650   150.39412      298.13423     -2343.9691      6.5512686     -2337.4178     -7883.7505    
    192700   144.07583      285.60915     -2343.4919      6.2760396     -2337.2159     -10755.272    
    192750   135.19736      268.00889     -2343.2321      5.8892875     -2337.3428     -12195.98     
    192800   157.98405      313.18015     -2344.2668      6.8818911     -2337.3849     -14274.03     
    192850   151.95551      301.22946     -2343.9313      6.6192838     -2337.312      -13146.665    
    192900   154.29141      305.86002     -2344.019       6.7210368     -2337.298      -12056.469    
    192950   153.8757       305.03595     -2344.0921      6.7029286     -2337.3892     -12815.537    
    193000   148.67724      294.73077     -2343.8454      6.4764801     -2337.3689     -15604.364    
    193050   168.8402       334.70087     -2344.6869      7.3547921     -2337.3321     -12396.576    
    193100   145.8422       289.11071     -2343.7291      6.3529836     -2337.3761     -15058.7      
    193150   161.50236      320.15467     -2344.4471      7.0351507     -2337.412      -10864.199    
    193200   153.09437      303.48707     -2344.0472      6.6688931     -2337.3783     -15403.049    
    193250   161.91854      320.9797      -2344.3827      7.0532799     -2337.3294     -10522.442    
    193300   169.38453      335.77993     -2344.7087      7.3785036     -2337.3302     -12171.665    
    193350   157.84369      312.9019      -2344.2367      6.8757767     -2337.361      -13818.553    
    193400   161.65187      320.45106     -2344.4595      7.0416636     -2337.4178     -10532.464    
    193450   139.85224      277.2365      -2343.5501      6.0920572     -2337.4581     -13851.862    
    193500   157.9038       313.02106     -2344.2845      6.8783952     -2337.4061     -10545.437    
    193550   168.73214      334.48665     -2344.6764      7.3500849     -2337.3263     -10655.225    
    193600   149.64475      296.64871     -2343.9091      6.5186255     -2337.3905     -9150.5634    
    193650   164.19038      325.48328     -2344.5064      7.1522427     -2337.3542     -12131.645    
    193700   180.66498      358.14175     -2345.2721      7.8698873     -2337.4022     -11743.621    
    193750   163.96675      325.03997     -2344.5205      7.1425014     -2337.378      -12434.037    
    193800   160.61517      318.39596     -2344.396       6.9965044     -2337.3995     -9534.5373    
    193850   161.79587      320.73651     -2344.494       7.0479362     -2337.446      -9791.3419    
    193900   155.05454      307.37283     -2344.1808      6.7542797     -2337.4265     -8759.9287    
    193950   155.37903      308.01607     -2344.221       6.7684143     -2337.4526     -12137.665    
    194000   170.30027      337.59523     -2344.9126      7.4183935     -2337.4942     -9290.6322    
    194050   152.42487      302.15989     -2344.133       6.6397293     -2337.4933     -9613.3111    
    194100   147.34439      292.08859     -2343.94        6.4184203     -2337.5216     -13214.102    
    194150   161.57485      320.29837     -2344.5192      7.0383084     -2337.4809     -14498.631    
    194200   152.89182      303.08555     -2344.1931      6.66007       -2337.5331     -11468.84     
    194250   160.41059      317.9904      -2344.3428      6.9875925     -2337.3552     -13744.114    
    194300   144.18408      285.82374     -2343.6108      6.2807551     -2337.3301     -11512.868    
    194350   159.77501      316.73045     -2344.3671      6.9599061     -2337.4072     -12314.461    
    194400   159.86766      316.91413     -2344.4017      6.9639423     -2337.4378     -11758.481    
    194450   150.95675      299.24955     -2343.996       6.5757768     -2337.4202     -9814.9045    
    194500   155.92067      309.0898      -2344.3164      6.7920086     -2337.5244     -9755.104     
    194550   148.4763       294.33243     -2343.9408      6.467727      -2337.4731     -12345.264    
    194600   170.69947      338.38659     -2344.894       7.435783      -2337.4582     -10217.044    
    194650   165.78637      328.64709     -2344.7452      7.221765      -2337.5234     -10733.837    
    194700   168.41147      333.85098     -2344.8742      7.3361165     -2337.5381     -11034.887    
    194750   162.10181      321.343       -2344.6363      7.0612632     -2337.5751     -12142.968    
    194800   164.06501      325.23476     -2344.8374      7.1467816     -2337.6906     -10217.282    
    194850   152.04913      301.41504     -2344.3106      6.6233619     -2337.6872     -10258.404    
    194900   168.07153      333.17709     -2345.0298      7.3213082     -2337.7085     -11666.564    
    194950   142.93412      283.34587     -2343.9287      6.2263058     -2337.7024     -11955.793    
    195000   157.98601      313.18404     -2344.6184      6.8819764     -2337.7364     -10759.408    
    195050   156.34301      309.92702     -2344.5668      6.810406      -2337.7564     -9714.4871    
    195100   158.38592      313.97679     -2344.5901      6.8993964     -2337.6907     -9147.6417    
    195150   168.52591      334.07783     -2345.0423      7.3411012     -2337.7012     -12388.341    
    195200   166.74693      330.55128     -2345.0078      7.263608      -2337.7442     -11430.52     
    195250   152.76477      302.83368     -2344.3797      6.6545354     -2337.7252     -10260.58     
    195300   150.41116      298.16801     -2344.3371      6.5520109     -2337.7851     -13264.529    
    195350   162.32349      321.78245     -2344.7894      7.0709199     -2337.7184     -15950.229    
    195400   153.25817      303.81179     -2344.4193      6.6760285     -2337.7432     -10408.934    
    195450   162.45601      322.04514     -2344.7656      7.0766923     -2337.6889     -9297.82      
    195500   151.74342      300.80901     -2344.2758      6.6100448     -2337.6658     -12634.284    
    195550   169.11713      335.24984     -2345.0755      7.3668552     -2337.7087     -13751.5      
    195600   142.37463      282.23676     -2343.9533      6.201934      -2337.7513     -11973.564    
    195650   153.22303      303.74212     -2344.3934      6.6744975     -2337.7189     -13945.289    
    195700   156.17491      309.59379     -2344.5439      6.8030835     -2337.7408     -10229.533    
    195750   163.57677      324.2669      -2344.8819      7.1255136     -2337.7564     -14246.171    
    195800   154.208        305.69467     -2344.4975      6.7174034     -2337.7801     -10201.241    
    195850   160.67302      318.51063     -2344.8189      6.9990241     -2337.8199     -12916.138    
    195900   163.65398      324.41995     -2344.9527      7.1288768     -2337.8238     -11419.446    
    195950   154.33942      305.95521     -2344.521       6.7231285     -2337.7979     -10300.839    
    196000   164.41583      325.9302      -2344.8976      7.1620635     -2337.7355     -8283.5373    
    196050   148.89297      295.15842     -2344.2557      6.4858774     -2337.7698     -9381.7724    
    196100   164.08291      325.27025     -2344.9168      7.1475615     -2337.7692     -12585.442    
    196150   159.96827      317.11357     -2344.7817      6.9683248     -2337.8134     -7922.532     
    196200   150.02563      297.40375     -2344.321       6.5352169     -2337.7858     -9261.4528    
    196250   149.07166      295.51265     -2344.2464      6.4936613     -2337.7527     -8570.2294    
    196300   165.1109       327.30808     -2344.9707      7.1923414     -2337.7784     -9512.8444    
    196350   152.2658       301.84455     -2344.4394      6.6328001     -2337.8066     -10164.788    
    196400   168.06736      333.16883     -2345.1341      7.3211267     -2337.8129     -7582.0317    
    196450   166.43524      329.93338     -2345.0763      7.2500303     -2337.8262     -7680.2246    
    196500   154.44413      306.16277     -2344.5956      6.7276895     -2337.8679     -8370.4703    
    196550   153.06345      303.42577     -2344.4879      6.6675461     -2337.8203     -12369.672    
    196600   153.96756      305.21804     -2344.6142      6.7069299     -2337.9073     -11195.928    
    196650   148.79246      294.95917     -2344.3895      6.4814991     -2337.908      -12240.832    
    196700   168.97875      334.97552     -2345.2878      7.3608273     -2337.9269     -13104.307    
    196750   155.81505      308.88043     -2344.7304      6.7874079     -2337.943      -15478.855    
    196800   150.10519      297.56147     -2344.4589      6.5386826     -2337.9202     -12125.016    
    196850   148.99502      295.36071     -2344.3255      6.4903226     -2337.8352     -11894.288    
    196900   156.95107      311.13241     -2344.7315      6.8368935     -2337.8946     -13301.912    
    196950   151.49228      300.31116     -2344.517       6.5991049     -2337.9179     -13875.119    
    197000   160.28092      317.73336     -2344.8805      6.9819443     -2337.8985     -12321.665    
    197050   150.38409      298.11435     -2344.559       6.5508316     -2338.0082     -9117.0665    
    197100   156.14981      309.54404     -2344.8043      6.8019902     -2338.0023     -13461.153    
    197150   160.67237      318.50935     -2344.9369      6.9989961     -2337.9379     -10147.172    
    197200   164.92406      326.93769     -2345.1388      7.1842023     -2337.9546     -12676.415    
    197250   152.12143      301.55837     -2344.587       6.6265113     -2337.9605     -12456.548    
    197300   166.20473      329.47643     -2345.1358      7.239989      -2337.8958     -10682.177    
    197350   152.67668      302.65908     -2344.4511      6.6506985     -2337.8004     -10001.659    
    197400   161.92638      320.99523     -2345.0229      7.0536214     -2337.9693     -12229.711    
    197450   156.30137      309.84448     -2344.7268      6.8085922     -2337.9182     -10831.647    
    197500   154.11849      305.51724     -2344.7129      6.7135044     -2337.9994     -12264.366    
    197550   154.86402      306.99514     -2344.7006      6.7459803     -2337.9546     -8864.5176    
    197600   152.41951      302.14926     -2344.571       6.6394956     -2337.9315     -10319.861    
    197650   147.43234      292.26292     -2344.3134      6.4222512     -2337.8911     -12277.263    
    197700   161.54027      320.22983     -2344.9866      7.0368021     -2337.9498     -5708.2835    
    197750   157.29964      311.82341     -2344.8124      6.8520777     -2337.9603     -10035.401    
    197800   152.40565      302.1218      -2344.6007      6.6388922     -2337.9618     -12273.458    
    197850   147.61011      292.61534     -2344.3928      6.4299953     -2337.9628     -12619.519    
    197900   151.95131      301.22113     -2344.4284      6.6191008     -2337.8093     -9250.0787    
    197950   161.68191      320.51061     -2345.0147      7.042972      -2337.9717     -11951.39     
    198000   151.87236      301.06462     -2344.5578      6.6156616     -2337.9421     -8636.4239    
    198050   147.60537      292.60594     -2344.4166      6.4297887     -2337.9868     -13135.17     
    198100   143.54753      284.56188     -2344.1488      6.2530266     -2337.8958     -11877.592    
    198150   141.91374      281.32311     -2344.1414      6.1818573     -2337.9596     -12751.093    
    198200   155.87623      309.00171     -2344.8284      6.7900729     -2338.0383     -11145.271    
    198250   155.8848       309.0187      -2344.7859      6.7904463     -2337.9955     -8717.2937    
    198300   142.45468      282.39544     -2344.2014      6.2054209     -2337.996      -14053.958    
    198350   162.13835      321.41544     -2345.0699      7.062855      -2338.007      -12000.16     
    198400   148.90661      295.18545     -2344.529       6.4864714     -2338.0426     -13745.056    
    198450   148.03693      293.46144     -2344.5114      6.4485876     -2338.0629     -12396.859    
    198500   156.07858      309.40282     -2344.8702      6.7988871     -2338.0713     -11182.972    
    198550   153.88905      305.06241     -2344.7902      6.70351       -2338.0867     -13981.393    
    198600   141.54057      280.58336     -2344.2558      6.1656017     -2338.0902     -10818.848    
    198650   147.79908      292.98995     -2344.5142      6.4382269     -2338.0759     -12148.026    
    198700   153.21287      303.72198     -2344.7613      6.6740549     -2338.0873     -10945.116    
    198750   151.63739      300.59883     -2344.7238      6.6054262     -2338.1184     -10704.561    
    198800   156.54063      310.31878     -2344.9088      6.8190147     -2338.0898     -13023.042    
    198850   173.8765       344.68459     -2345.6384      7.5741766     -2338.0643     -8101.0858    
    198900   145.34607      288.12722     -2344.4134      6.3313722     -2338.082      -12264.97     
    198950   160.46247      318.09325     -2345.075       6.9898525     -2338.0851     -10300.844    
    199000   140.90132      279.31615     -2344.2487      6.1377559     -2338.1109     -10181.477    
    199050   169.35459      335.72056     -2345.4478      7.3771991     -2338.0706     -11036.002    
    199100   147.73424      292.86141     -2344.555       6.4354024     -2338.1196     -9834.2314    
    199150   147.74113      292.87506     -2344.5299      6.4357023     -2338.0942     -9757.5165    
    199200   157.02287      311.27476     -2345.0076      6.8400215     -2338.1676     -9778.9463    
    199250   161.52932      320.20812     -2345.1969      7.0363252     -2338.1606     -11772.786    
    199300   161.51281      320.17539     -2345.1442      7.035606      -2338.1086     -11887.7      
    199350   139.77027      277.07401     -2344.2252      6.0884866     -2338.1368     -11647.671    
    199400   149.02635      295.42282     -2344.6108      6.4916875     -2338.1192     -12022.212    
    199450   149.74523      296.84789     -2344.6985      6.5230023     -2338.1755     -9175.3321    
    199500   171.91427      340.79477     -2345.656       7.4887008     -2338.1673     -9288.6681    
    199550   146.98192      291.37005     -2344.526       6.4026309     -2338.1234     -10099.588    
    199600   157.81983      312.85461     -2345.0434      6.8747375     -2338.1687     -11614.837    
    199650   159.45819      316.1024      -2345.1261      6.9461052     -2338.18       -11835.704    
    199700   169.02609      335.06936     -2345.5776      7.3628894     -2338.2147     -12059.66     
    199750   140.38104      278.28477     -2344.3218      6.115092      -2338.2067     -12834.512    
    199800   161.12085      319.39838     -2345.2406      7.0185319     -2338.222      -10539.353    
    199850   143.45789      284.38416     -2344.378       6.2491214     -2338.1289     -13111.39     
    199900   162.22083      321.57894     -2345.2295      7.0664479     -2338.163      -14573.949    
    199950   146.93784      291.28265     -2344.5699      6.4007105     -2338.1692     -10797.998    
    200000   155.16012      307.58213     -2344.9329      6.7588788     -2338.174      -12737.563    
colvars: Saving collective variables state to "out.colvars.state".
colvars:   Writing TI PMF to file "out.metadynamics1.ti.pmf".
Loop time of 1026.73 on 4 procs for 200000 steps with 338 atoms

Performance: 8.415 ns/day, 2.852 hours/ns, 194.794 timesteps/s, 65.840 katom-step/s
137.3% CPU use with 4 MPI tasks x 1 OpenMP threads

MPI task timing breakdown:
Section |  min time  |  avg time  |  max time  |%varavg| %total
---------------------------------------------------------------
Pair    | 816.06     | 884.53     | 944.85     | 166.6 | 86.15
Neigh   | 0.10577    | 1.3678     | 2.3307     |  72.1 |  0.13
Comm    | 12.891     | 64.195     | 139.33     | 586.5 |  6.25
Output  | 39.959     | 45.353     | 51.801     |  78.5 |  4.42
Modify  | 13.086     | 22.821     | 46.831     | 292.2 |  2.22
Other   |            | 8.464      |            |       |  0.82

Nlocal:           84.5 ave         119 max           8 min
Histogram: 1 0 0 0 0 0 0 1 0 2
Nghost:           1152 ave        1667 max         698 min
Histogram: 1 0 0 1 0 1 0 0 0 1
Neighs:              0 ave           0 max           0 min
Histogram: 4 0 0 0 0 0 0 0 0 0
FullNghs:      15198.5 ave       23866 max         829 min
Histogram: 1 0 0 0 0 1 0 0 0 2

Total # of neighbors = 60794
Ave neighs/atom = 179.86391
Neighbor list builds = 2378
Dangerous builds = 0
System init for write_data ...
Generated 0 of 6 mixed pair_coeff terms from geometric mixing rule

CITE-CITE-CITE-CITE-CITE-CITE-CITE-CITE-CITE-CITE-CITE-CITE-CITE

Your simulation uses code contributions which should be cited:
- Colvars module (Fiorin2013, plus other works listed for specific features)
The log file lists these citations in BibTeX format.

CITE-CITE-CITE-CITE-CITE-CITE-CITE-CITE-CITE-CITE-CITE-CITE-CITE

Total wall time: 0:17:31
