LAMMPS (2 Aug 2023)
OMP_NUM_THREADS environment is not set. Defaulting to 1 thread. (src/comm.cpp:98)
  using 1 OpenMP thread(s) per MPI task
Loaded 1 plugins from /work/home/baoergen22b/apprepo/deepmd/v2.2.9-dtk23.10/app/lib/deepmd_lmp
Reading data file ...
  orthogonal box = (0 0 0) to (11.328 12.015 32)
  1 by 1 by 4 MPI processor grid
  reading atoms ...
  339 atoms
  read_data CPU = 0.025 seconds
Summary of lammps deepmd module ...
  >>> Info of deepmd-kit:
  installed to:       /work/home/wys974137909/shangcheng/deepmd-kit/20240715/deepmd-kit_v2.2.9/install
  source:             v2.2.9
  source branch:      HEAD
  source commit:      be43748
  source commit at:   2024-02-04 13:44:12 +0800
  support model ver.: 1.1 
  build variant:      rocm
  build with tf inc:  /work/home/wys974137909/shangcheng/miniconda3/envs/deepmd-kit-v2.2.9/lib/python3.8/site-packages/tensorflow/include;/work/home/wys974137909/shangcheng/miniconda3/envs/deepmd-kit-v2.2.9/lib/python3.8/site-packages/tensorflow/include
  build with tf lib:  /work/home/wys974137909/shangcheng/miniconda3/envs/deepmd-kit-v2.2.9/lib/python3.8/site-packages/tensorflow/lib/libtensorflow_cc.so
  set tf intra_op_parallelism_threads: 0
  set tf inter_op_parallelism_threads: 0
  >>> Info of lammps module:
  use deepmd-kit at:  /work/home/wys974137909/shangcheng/deepmd-kit/20240715/deepmd-kit_v2.2.9/install
  source:             v2.2.9
  source branch:      HEAD
  source commit:      be43748
  source commit at:   2024-02-04 13:44:12 +0800
  build float prec:   double
  build with tf inc:  /work/home/wys974137909/shangcheng/miniconda3/envs/deepmd-kit-v2.2.9/lib/python3.8/site-packages/tensorflow/include;/work/home/wys974137909/shangcheng/miniconda3/envs/deepmd-kit-v2.2.9/lib/python3.8/site-packages/tensorflow/include
  build with tf lib:  /work/home/wys974137909/shangcheng/miniconda3/envs/deepmd-kit-v2.2.9/lib/python3.8/site-packages/tensorflow/lib/libtensorflow_cc.so
INVALID_ARGUMENT: Tensor spin_attr/ntypes_spin:0, specified in either feed_devices or fetch_devices was not found in the Graph
INVALID_ARGUMENT: Tensor spin_attr/ntypes_spin:0, specified in either feed_devices or fetch_devices was not found in the Graph
INVALID_ARGUMENT: Tensor spin_attr/ntypes_spin:0, specified in either feed_devices or fetch_devices was not found in the Graph
INVALID_ARGUMENT: Tensor spin_attr/ntypes_spin:0, specified in either feed_devices or fetch_devices was not found in the Graph
  >>> Info of model(s):
  using   1 model(s): graph-compress.pb 
  rcut in model:      6
  ntypes in model:    4
168 atoms in group fixed
171 atoms in group mobile

CITE-CITE-CITE-CITE-CITE-CITE-CITE-CITE-CITE-CITE-CITE-CITE-CITE

Your simulation uses code contributions which should be cited:
- GPU package (short-range, long-range and three-body potentials): doi:10.1016/j.cpc.2010.12.021, doi:10.1016/j.cpc.2011.10.012, doi:10.1016/j.cpc.2013.08.002, doi:10.1016/j.commatsci.2014.10.068, doi:10.1016/j.cpc.2016.10.020, doi:10.3233/APC200086
- USER-DEEPMD package:
The log file lists these citations in BibTeX format.

CITE-CITE-CITE-CITE-CITE-CITE-CITE-CITE-CITE-CITE-CITE-CITE-CITE

Generated 0 of 6 mixed pair_coeff terms from geometric mixing rule
Neighbor list info ...
  update: every = 1 steps, delay = 0 steps, check = yes
  max neighbors/atom: 2000, page size: 100000
  master list distance cutoff = 8
  ghost atom cutoff = 8
  binsize = 4, bins = 3 4 8
  1 neighbor lists, perpetual/occasional/extra = 1 0 0
  (1) pair deepmd, perpetual
      attributes: full, newton on
      pair build: full/bin/atomonly
      stencil: full/bin/3d
      bin: standard
Setting up Verlet run ...
  Unit style    : metal
  Current step  : 0
  Time step     : 0.0005
colvars: Creating proxy instance
colvars: ----------------------------------------------------------------------
colvars: Initializing the collective variables module, version 2023-05-01.
colvars: Please cite Fiorin et al, Mol Phys 2013:
colvars:   https://doi.org/10.1080/00268976.2013.813594
colvars: as well as all other papers listed below for individual features used.
colvars: This version was built with the C++11 standard or higher.
colvars: Using LAMMPS interface, version "2023-04-12".
colvars: ----------------------------------------------------------------------
colvars: Reading new configuration from file "pmf.in":
colvars: # units = "" [default]
colvars: # smp = on [default]
colvars: # colvarsTrajFrequency = 100 [default]
colvars: # colvarsRestartFrequency = 0 [default]
colvars: # scriptedColvarForces = off [default]
colvars: # scriptingAfterBiases = off [default]
colvars: ----------------------------------------------------------------------
colvars:   Initializing a new collective variable.
colvars:   # name = "d"
colvars:   Initializing a new "distance" component.
colvars:     # name = "" [default]
colvars:     # componentCoeff = 1 [default]
colvars:     # componentExp = 1 [default]
colvars:     # period = 0 [default]
colvars:     # wrapAround = 0 [default]
colvars:     # forceNoPBC = off [default]
colvars:     # scalable = on [default]
colvars:       Initializing atom group "group1".
colvars:       # name = "" [default]
colvars:       # centerToOrigin = off [default]
colvars:       # centerToReference = off [default]
colvars:       # rotateToReference = off [default]
colvars:       # atomsOfGroup = "" [default]
colvars:       # indexGroup = "" [default]
colvars:       # psfSegID =  [default]
colvars:       # atomsFile = "" [default]
colvars:       # dummyAtom = ( 0 , 0 , 0 ) [default]
colvars:       # enableFitGradients = on [default]
colvars:       # printAtomIDs = off [default]
colvars:       Atom group "group1" defined with 1 atoms requested.
colvars:       Initializing atom group "group2".
colvars:       # name = "" [default]
colvars:       # centerToOrigin = off [default]
colvars:       # centerToReference = off [default]
colvars:       # rotateToReference = off [default]
colvars:       # atomsOfGroup = "" [default]
colvars:       # indexGroup = "" [default]
colvars:       # psfSegID =  [default]
colvars:       # atomsFile = "" [default]
colvars:       # dummyAtom = ( 0 , 0 , 0 ) [default]
colvars:       # enableFitGradients = on [default]
colvars:       # printAtomIDs = off [default]
colvars:       Atom group "group2" defined with 1 atoms requested.
colvars:     # oneSiteSystemForce = off [default]
colvars:     # oneSiteTotalForce = off [default]
colvars:   All components initialized.
colvars:   # timeStepFactor = 1 [default]
colvars:   # width = 0.02
colvars:   # lowerBoundary = 0.5
colvars:   # upperBoundary = 2.2
colvars:   # hardLowerBoundary = on
colvars:   # hardUpperBoundary = on
colvars:   # expandBoundaries = off [default]
colvars:   # extendedLagrangian = off [default]
colvars:   # outputValue = on [default]
colvars:   # outputVelocity = off [default]
colvars:   # outputTotalForce = on
colvars:   # outputAppliedForce = on
colvars:   # subtractAppliedForce = off [default]
colvars:   # runAve = off [default]
colvars:   # corrFunc = off [default]
colvars: ----------------------------------------------------------------------
colvars: Collective variables initialized, 1 in total.
colvars: ----------------------------------------------------------------------
colvars:   Initializing a new "metadynamics" instance.
colvars:   # name = "metadynamics1" [default]
colvars:   # colvars = { d }
colvars:   # stepZeroData = off [default]
colvars:   # outputEnergy = off [default]
colvars:   # outputFreq = 0 [default]
colvars:   # timeStepFactor = 1 [default]
colvars:   # writeTISamples = on
colvars:   # writeTIPMF = on
colvars:   # hillWeight = 0.2
colvars:   # newHillFrequency = 500
colvars:   # gaussianSigmas =  [default]
colvars:   # hillWidth = 1
colvars:   Half-widths of the Gaussian hills (sigma's):
colvars:   d: 0.01
colvars:   # multipleReplicas = off [default]
colvars:   # useGrids = on [default]
colvars:   # gridsUpdateFrequency = 500 [default]
colvars:   # rebinGrids = off [default]
colvars:   # writeFreeEnergyFile = on [default]
colvars:   # keepHills = off [default]
colvars:   # keepFreeEnergyFiles = off [default]
colvars:   # writeHillsTrajectory = off [default]
colvars:   # wellTempered = off [default]
colvars:   # biasTemperature = 800
colvars:   # ebMeta = off [default]
colvars: ----------------------------------------------------------------------
colvars: Collective variables biases initialized, 1 in total.
colvars: ----------------------------------------------------------------------
colvars: Collective variables module (re)initialized.
colvars: ----------------------------------------------------------------------
colvars: Re-initialized atom group for variable "d":0/0. 1 atoms: total mass = 1.008, total charge = 1.63394e-312.
colvars: Re-initialized atom group for variable "d":0/1. 1 atoms: total mass = 1.008, total charge = 1.40881e-309.
colvars: The restart output state file will be "rest.colvars.state".
colvars: The final output state file will be "out.colvars.state".
Per MPI rank memory allocation (min/avg/max) = 3.124 | 3.146 | 3.16 Mbytes
   Step          Temp         c_mTemp         PotEng         KinEng         TotEng         Press     
         0   149.9571       298.15        -2247.8234      6.5516151     -2241.2718     -14783.352    
        50   130.59388      259.65136     -2246.9748      5.7056372     -2241.2691     -14750.29     
       100   136.00624      270.4124      -2247.2119      5.9421028     -2241.2698     -12293.107    
       150   139.24855      276.85889     -2247.3517      6.0837594     -2241.2679     -12463.858    
       200   139.16439      276.69154     -2247.3434      6.0800821     -2241.2633     -11075.272    
       250   143.05921      284.43537     -2247.5105      6.2502468     -2241.2602     -15547.657    
       300   149.27765      296.79909     -2247.7879      6.5219298     -2241.2659     -11860.766    
       350   142.11711      282.56225     -2247.4722      6.2090865     -2241.2631     -13287.112    
       400   129.52687      257.52989     -2246.9093      5.6590198     -2241.2503     -13085.54     
       450   142.19171      282.71058     -2247.4635      6.2123457     -2241.2512     -12825.463    
       500   144.61573      287.5301      -2247.5683      6.3182509     -2241.25       -11131.133    
       550   134.05437      266.53163     -2246.9736      5.8568259     -2241.1168     -13853.601    
       600   141.10236      280.54469     -2247.2413      6.1647521     -2241.0765     -15870.631    
       650   147.26652      292.80049     -2247.4244      6.4340636     -2240.9903     -14057.632    
       700   140.32321      278.99556     -2247.0439      6.130711      -2240.9132     -11776.719    
       750   143.18063      284.67677     -2247.1075      6.2555514     -2240.8519     -13394.808    
       800   160.65292      319.41581     -2247.7379      7.0189147     -2240.719      -15100.155    
       850   162.92479      323.93282     -2247.8293      7.1181725     -2240.7111     -12429.917    
       900   136.97729      272.34308     -2246.6657      5.9845281     -2240.6811     -13787.51     
       950   151.78626      301.78679     -2247.3112      6.6315307     -2240.6797     -13515.228    
      1000   146.8398       291.95208     -2247.0924      6.4154206     -2240.6769     -12061.151    
      1050   147.20096      292.67015     -2246.9681      6.4311997     -2240.5369     -13737.071    
      1100   146.26214      290.80355     -2246.972       6.3901825     -2240.5818     -14782.537    
      1150   148.81738      295.88396     -2246.8833      6.5018206     -2240.3814     -13184.173    
      1200   146.20444      290.68884     -2246.7111      6.3876618     -2240.3235     -11565.532    
      1250   164.5666       327.19712     -2247.5123      7.1899031     -2240.3224     -14842.41     
      1300   180.23416      358.34792     -2247.4006      7.8744177     -2239.5262     -10336.963    
      1350   159.70065      317.52246     -2246.4916      6.9773099     -2239.5143     -10724.242    
      1400   150.20946      298.65175     -2245.3367      6.5626406     -2238.7741     -11473.12     
      1450   174.9883       347.91791     -2246.4198      7.6452263     -2238.7745     -13055.326    
      1500   174.20038      346.35135     -2246.3803      7.6108023     -2238.7695     -12285.941    
      1550   170.13476      338.26793     -2246.1997      7.4331755     -2238.7665     -12527.447    
      1600   161.21819      320.53969     -2245.8054      7.0436112     -2238.7618     -8193.903     
      1650   160.18608      318.48761     -2245.7576      6.9985183     -2238.7591     -14199.969    
      1700   164.16796      326.40453     -2245.9295      7.1724865     -2238.757      -13956.42     
      1750   166.56507      331.17054     -2246.0421      7.2772159     -2238.7649     -12368.845    
      1800   163.30644      324.69163     -2245.8943      7.1348469     -2238.7595     -12259.04     
      1850   161.25405      320.611       -2245.8037      7.0451781     -2238.7585     -13503.016    
      1900   161.44106      320.98282     -2245.8229      7.0533486     -2238.7695     -13154.792    
      1950   160.23546      318.5858      -2245.7815      7.0006759     -2238.7808     -14514.063    
      2000   163.27489      324.6289      -2245.9133      7.1334685     -2238.7798     -13855.415    
      2050   172.81116      343.58924     -2245.7988      7.5501071     -2238.2487     -13873.163    
      2100   170.95654      339.90183     -2245.7251      7.4690791     -2238.2561     -13878.422    
      2150   158.53262      315.20015     -2245.1866      6.926279      -2238.2603     -16447.774    
      2200   164.12896      326.327       -2245.4425      7.1707828     -2238.2717     -13425.392    
      2250   155.2343       308.6423      -2245.0602      6.7821753     -2238.278      -13497.655    
      2300   161.61324      321.32514     -2245.3526      7.0608709     -2238.2917     -12034.844    
      2350   157.49227      313.13169     -2245.1804      6.8808261     -2238.2996     -14067.489    
      2400   172.26538      342.5041      -2245.8414      7.5262621     -2238.3151     -14094.344    
      2450   167.48505      332.99968     -2245.6505      7.3174098     -2238.3331     -12054.861    
      2500   197.79678      393.26654     -2245.6658      8.6417273     -2237.0241     -13488.907    
      2550   178.48459      354.86936     -2244.117       7.7979789     -2236.3191     -12780.728    
      2600   199.72768      397.10562     -2245.0771      8.7260882     -2236.351      -12447.558    
      2650   185.40498      368.62872     -2244.4818      8.1003303     -2236.3814     -14089.332    
      2700   178.60922      355.11716     -2244.2189      7.8034243     -2236.4155     -12865.735    
      2750   189.10826      375.99173     -2244.7088      8.2621266     -2236.4467     -12361.488    
      2800   170.39818      338.79168     -2243.9201      7.4446846     -2236.4754     -12995.762    
      2850   188.02393      373.83581     -2244.7406      8.214752      -2236.5258     -15862.927    
      2900   195.75737      389.21171     -2245.1314      8.5526257     -2236.5788     -12063.126    
      2950   188.50033      374.78302     -2244.867       8.2355662     -2236.6315     -10438.851    
      3000   185.26892      368.35821     -2244.7811      8.0943862     -2236.6867     -10504.946    
      3050   195.03917      387.78376     -2245.2663      8.5212474     -2236.745      -11511.363    
      3100   187.08761      371.97419     -2244.9778      8.1738444     -2236.8039     -11351.417    
      3150   180.66836      359.2112      -2244.7611      7.8933876     -2236.8677     -12959.169    
      3200   174.15982      346.27069     -2244.5278      7.60903       -2236.9188     -15284.991    
      3250   156.8226       311.80023     -2243.8303      6.8515683     -2236.9787     -14090.163    
      3300   160.57154      319.254       -2244.0544      7.0153591     -2237.039      -12579.186    
      3350   183.17057      364.1862      -2245.0979      8.0027094     -2237.0952     -13571.005    
      3400   180.79518      359.46336     -2245.0579      7.8989286     -2237.159      -13743.277    
      3450   163.85728      325.78683     -2244.3613      7.158913      -2237.2024     -13912.714    
      3500   167.61987      333.26774     -2244.587       7.3233003     -2237.2637     -12818.92     
      3550   175.56253      349.05961     -2244.9953      7.6703143     -2237.325      -11661.318    
      3600   187.52103      372.83592     -2245.5703      8.1927803     -2237.3775     -14436.379    
      3650   180.06637      358.01432     -2245.2967      7.8670871     -2237.4296     -12527.215    
      3700   167.88643      333.79773     -2244.8074      7.3349463     -2237.4725     -11217.169    
      3750   186.69882      371.20118     -2245.6883      8.1568581     -2237.5314     -13945.274    
      3800   169.80559      337.61347     -2244.9829      7.4187943     -2237.5641     -13413.524    
      3850   157.66532      313.47576     -2244.4911      6.8883868     -2237.6027     -12915.819    
      3900   179.82519      357.5348      -2245.5006      7.85655       -2237.644      -13526.827    
      3950   178.26928      354.44128     -2245.475       7.7885722     -2237.6864     -13740.523    
      4000   165.76064      329.57115     -2244.9614      7.2420705     -2237.7193     -14204.51     
      4050   171.82237      341.6233      -2245.2623      7.5069072     -2237.7554     -14961.758    
      4100   168.61132      335.23898     -2245.1546      7.3666167     -2237.788      -13332.759    
      4150   165.11456      328.28661     -2245.0266      7.2138436     -2237.8128     -13900.33     
      4200   165.96008      329.9677      -2245.0953      7.2507843     -2237.8445     -17237.285    
      4250   160.91205      319.93103     -2244.9068      7.0302362     -2237.8766     -13721.814    
      4300   156.16836      310.49944     -2244.7226      6.8229843     -2237.8997     -12829.361    
      4350   164.15126      326.37134     -2245.1025      7.1717571     -2237.9308     -12380.859    
      4400   158.29383      314.72539     -2244.8678      6.9158464     -2237.952      -11539.978    
      4450   159.30418      316.73419     -2244.9329      6.9599881     -2237.9729     -16332.134    
      4500   158.97436      316.07843     -2244.9442      6.9455785     -2237.9986     -13390.491    
      4550   161.07326      320.25154     -2245.0616      7.0372793     -2238.0243     -13465.066    
      4600   163.28789      324.65475     -2245.1798      7.1340364     -2238.0457     -13368.154    
      4650   160.56685      319.24468     -2245.0801      7.0151544     -2238.0649     -11435.335    
      4700   151.83773      301.88914     -2244.7165      6.6337798     -2238.0827     -14860.073    
      4750   160.39444      318.90189     -2245.1144      7.0076217     -2238.1068     -12169.986    
      4800   155.01239      308.20111     -2244.9015      6.7724804     -2238.129      -15611.475    
      4850   165.37009      328.79465     -2245.3741      7.2250076     -2238.1491     -14582.517    
      4900   152.69621      303.59599     -2244.8439      6.6712865     -2238.1726     -11688.676    
      4950   167.81212      333.64999     -2245.5283      7.3316998     -2238.1966     -10486.943    
      5000   162.43983      322.9686      -2245.3157      7.0969846     -2238.2187     -15445.427    
      5050   165.80726      329.66385     -2245.482       7.2441076     -2238.2379     -14599.257    
      5100   156.95755      312.06854     -2245.1188      6.8574642     -2238.2613     -12342.258    
      5150   148.15084      294.55872     -2244.7573      6.4726995     -2238.2846     -12579.079    
      5200   159.07863      316.28574     -2245.2599      6.9501338     -2238.3098     -13479.281    
      5250   160.22571      318.56641     -2245.3341      7.0002498     -2238.3339     -11947.868    
      5300   156.82175      311.79854     -2245.2047      6.8515311     -2238.3532     -13995.497    
      5350   167.71908      333.46499     -2245.7128      7.3276345     -2238.3852     -13503.848    
      5400   156.78627      311.72799     -2245.2584      6.8499809     -2238.4084     -10468.545    
      5450   152.41114      303.02921     -2245.0933      6.658832      -2238.4344     -13617.57     
      5500   179.05178      355.99706     -2246.2786      7.8227594     -2238.4559     -12080.408    
      5550   164.47584      327.01666     -2245.6719      7.1859376     -2238.486      -12492.594    
      5600   162.26249      322.61601     -2245.5983      7.0892367     -2238.5091     -15965.962    
      5650   165.89696      329.8422      -2245.7816      7.2480266     -2238.5336     -13387.204    
      5700   162.73919      323.5638      -2245.6732      7.1100636     -2238.5632     -12735.213    
      5750   160.47315      319.05839     -2245.604       7.0110607     -2238.5929     -16969.805    
      5800   165.03283      328.1241      -2245.8374      7.2102726     -2238.6271     -11789.394    
      5850   155.48453      309.13984     -2245.4446      6.7931082     -2238.6515     -14807.767    
      5900   167.82007      333.6658      -2246.0063      7.3320472     -2238.6743     -13167.137    
      5950   145.45972      289.20815     -2245.0574      6.3551249     -2238.7023     -12699.713    
      6000   165.34949      328.75369     -2245.9583      7.2241074     -2238.7342     -12175.997    
      6050   168.63422      335.2845      -2246.1249      7.3676169     -2238.7572     -15264.204    
      6100   158.21651      314.57166     -2245.7         6.9124683     -2238.7876     -13199.401    
      6150   149.46577      297.17311     -2245.341       6.5301487     -2238.8109     -13927.252    
      6200   166.30065      330.64483     -2246.111       7.2656637     -2238.8453     -10370.556    
      6250   157.17342      312.49774     -2245.7359      6.8668955     -2238.869      -9017.1128    
      6300   159.67057      317.46267     -2245.8711      6.975996      -2238.8951     -11578.241    
      6350   157.77612      313.69605     -2245.8217      6.8932276     -2238.9285     -14118.452    
      6400   160.37046      318.8542      -2245.9669      7.0065739     -2238.9603     -13333.364    
      6450   169.1364       336.28297     -2246.3824      7.3895575     -2238.9928     -9946.2119    
      6500   164.12782      326.32472     -2246.1913      7.1707328     -2239.0206     -11152.9      
      6550   164.92582      327.91133     -2246.2485      7.2055973     -2239.0429     -15392.318    
      6600   151.85385      301.92119     -2245.7074      6.634484      -2239.0729     -10117.523    
      6650   159.34294      316.81125     -2246.0616      6.9616816     -2239.0999     -15211.697    
      6700   157.64378      313.43292     -2246.0155      6.8874455     -2239.1281     -12170.394    
      6750   144.53682      287.37321     -2245.4642      6.3148034     -2239.1494     -16230.913    
      6800   163.16068      324.40183     -2246.3146      7.1284786     -2239.1861     -12165.679    
      6850   146.88878      292.04946     -2245.628       6.4175605     -2239.2105     -14005.393    
      6900   151.21667      300.65432     -2245.8458      6.6066455     -2239.2392     -12221.131    
      6950   166.97136      331.97834     -2246.5606      7.2949667     -2239.2656     -16339.762    
      7000   150.78635      299.79874     -2245.8763      6.5878449     -2239.2885     -13991.098    
      7050   145.62491      289.53658     -2245.6778      6.3623419     -2239.3154     -13331.98     
      7100   147.36665      292.99957     -2245.7821      6.4384385     -2239.3437     -13348.258    
      7150   150.07403      298.38248     -2245.9334      6.5567236     -2239.3767     -11459.987    
      7200   152.06728      302.34554     -2246.0385      6.6438088     -2239.3947     -12961.746    
      7250   164.98934      328.03763     -2246.6246      7.2083726     -2239.4162     -14326.287    
      7300   139.07706      276.51791     -2245.5161      6.0762668     -2239.4398     -12723.452    
      7350   157.98915      314.1196      -2246.3707      6.9025346     -2239.4682     -12066.413    
      7400   152.81344      303.82907     -2246.1573      6.6764082     -2239.4809     -16082.925    
      7450   155.12109      308.41722     -2246.2841      6.7772294     -2239.5068     -12603.409    
      7500   158.2572       314.65255     -2246.448       6.9142459     -2239.5338     -13213.496    
      7550   147.96374      294.18673     -2246.017       6.4645253     -2239.5525     -14224.655    
      7600   156.22449      310.61105     -2246.4099      6.8254369     -2239.5845     -13316.76     
      7650   159.98133      318.08053     -2246.5985      6.9895731     -2239.6089     -14522.629    
      7700   150.60316      299.43453     -2246.2068      6.5798416     -2239.627      -14729.636    
      7750   158.28193      314.70172     -2246.5721      6.9153263     -2239.6567     -14266.087    
      7800   149.0779       296.40194     -2246.19        6.5132029     -2239.6768     -11628.051    
      7850   150.85664      299.93849     -2246.2938      6.5909157     -2239.7028     -15391.384    
      7900   151.03986      300.30279     -2246.3208      6.598921      -2239.7218     -13625.852    
      7950   135.30637      269.02089     -2245.6511      5.9115255     -2239.7395     -13208.568    
      8000   143.19629      284.70792     -2246.0277      6.2562358     -2239.7714     -10786.024    
      8050   156.00098      310.16666     -2246.6113      6.8156718     -2239.7957     -13265.097    
      8100   151.59939      301.41526     -2246.4393      6.6233667     -2239.8159     -13470.699    
      8150   141.30307      280.94375     -2246.0063      6.173521      -2239.8327     -9799.884     
      8200   151.71696      301.64902     -2246.4835      6.6285033     -2239.855      -15657.928    
      8250   163.00434      324.09098     -2247.0038      7.1216481     -2239.8821     -15070.557    
      8300   158.71037      315.55355     -2246.8352      6.9340446     -2239.9012     -11100.881    
      8350   148.66481      295.58062     -2246.4141      6.4951549     -2239.9189     -11408.644    
      8400   145.10463      288.50215     -2246.2831      6.3396111     -2239.9435     -15229.188    
      8450   152.64746      303.49907     -2246.6373      6.6691568     -2239.9681     -11149.826    
      8500   153.68506      305.56206     -2246.7012      6.7144893     -2239.9867     -14216.666    
      8550   146.24908      290.77759     -2246.394       6.3896121     -2240.0044     -12170.254    
      8600   154.77456      307.72824     -2246.7905      6.7620895     -2240.0284     -14328.609    
      8650   159.62247      317.36703     -2247.0268      6.9738944     -2240.0529     -10522.14     
      8700   153.78579      305.76234     -2246.7903      6.7188904     -2240.0714     -13154.023    
      8750   154.51869      307.21951     -2246.8491      6.7509106     -2240.0982     -13412.55     
      8800   156.19746      310.5573      -2246.9337      6.8242559     -2240.1094     -12373.238    
      8850   147.77046      293.80245     -2246.5894      6.456081      -2240.1333     -14153.245    
      8900   155.30535      308.78357     -2246.9397      6.7852796     -2240.1544     -14113.462    
      8950   154.85581      307.88978     -2246.9392      6.7656392     -2240.1735     -13193.296    
      9000   149.60751      297.45494     -2246.7235      6.5363416     -2240.1871     -12758.579    
      9050   148.73644      295.72305     -2246.7151      6.4982847     -2240.2168     -12213.714    
      9100   150.76049      299.74733     -2246.8168      6.5867152     -2240.2301     -14158.99     
      9150   144.51191      287.32367     -2246.5546      6.3137149     -2240.2409     -13434.729    
      9200   138.61511      275.59945     -2246.3199      6.0560841     -2240.2639     -11088.533    
      9250   161.08328      320.27145     -2247.3211      7.0377169     -2240.2834     -13827.143    
      9300   148.88554      296.01949     -2246.8036      6.5047988     -2240.2988     -11610.594    
      9350   148.57917      295.41036     -2246.8072      6.4914136     -2240.3158     -14564.688    
      9400   149.60863      297.45716     -2246.8707      6.5363905     -2240.3343     -14077.784    
      9450   149.28428      296.81228     -2246.8741      6.5222197     -2240.3519     -11604.331    
      9500   151.94187      302.09619     -2247.0038      6.6383296     -2240.3654     -14319.019    
      9550   155.72948      309.62685     -2247.1914      6.80381       -2240.3876     -12444.21     
      9600   157.0932       312.33825     -2247.2747      6.8633908     -2240.4114     -11570.061    
      9650   146.99587      292.26237     -2246.8466      6.422239      -2240.4243     -15435.303    
      9700   144.22483      286.7529      -2246.7449      6.3011726     -2240.4437     -14381.964    
      9750   147.43226      293.13002     -2246.9051      6.4413049     -2240.4638     -12942.606    
      9800   152.49208      303.19013     -2247.1405      6.6623681     -2240.4781     -14547.164    
      9850   149.62171      297.48315     -2247.03        6.5369617     -2240.4931     -15729.072    
      9900   144.87168      288.03899     -2246.8374      6.3294335     -2240.508      -10855.004    
      9950   135.61462      269.63378     -2246.4462      5.9249932     -2240.5212     -16660.602    
     10000   141.01802      280.37701     -2246.693       6.1610675     -2240.532      -14201.242    
     10050   151.53726      301.29173     -2247.1719      6.6206523     -2240.5512     -13749.321    
     10100   156.25897      310.6796      -2247.3999      6.8269432     -2240.5729     -10661.085    
     10150   152.44628      303.09908     -2247.2478      6.6603674     -2240.5875     -12514.289    
     10200   150.64626      299.52021     -2247.183       6.5817244     -2240.6013     -13102.659    
     10250   151.87271      301.95869     -2247.2567      6.6353081     -2240.6214     -12993.375    
     10300   137.50291      273.38815     -2246.6386      6.0074926     -2240.6311     -10340.999    
     10350   142.4004       283.12551     -2246.8711      6.2214635     -2240.6497     -11207.82     
     10400   141.89849      282.12759     -2246.8695      6.199535      -2240.67       -12738.381    
     10450   139.87065      278.09576     -2246.7927      6.1109387     -2240.6818     -13723.155    
     10500   138.16816      274.71081     -2246.7362      6.0365571     -2240.6996     -14261.601    
     10550   134.60696      267.63031     -2246.5874      5.8809686     -2240.7064     -14074.426    
     10600   144.02125      286.34814     -2247.0162      6.2922784     -2240.7239     -15924.229    
     10650   152.49403      303.19401     -2247.4016      6.6624533     -2240.7391     -15331.878    
     10700   146.91097      292.09357     -2247.1653      6.4185298     -2240.7468     -14510.915    
     10750   136.64626      271.68492     -2246.727       5.9700655     -2240.7569     -15359.703    
     10800   144.28667      286.87586     -2247.0772      6.3038745     -2240.7733     -11724.246    
     10850   139.40106      277.1621      -2246.8685      6.0904223     -2240.778      -18614.863    
     10900   151.16232      300.54626     -2247.3949      6.6042711     -2240.7907     -11352.054    
     10950   147.88048      294.02118     -2247.2634      6.4608875     -2240.8025     -12931.646    
     11000   145.79499      289.87475     -2247.1847      6.3697728     -2240.815      -11859.813    
     11050   137.96588      274.30864     -2246.8456      6.0277197     -2240.8179     -13528.504    
     11100   151.61711      301.45049     -2247.4589      6.6241407     -2240.8348     -15338.644    
     11150   149.09744      296.44078     -2247.3652      6.5140564     -2240.8511     -13308.263    
     11200   147.335        292.93665     -2247.3015      6.4370557     -2240.8645     -11007.502    
     11250   150.70879      299.64453     -2247.4596      6.5844563     -2240.8751     -13849.227    
     11300   150.38567      299.00211     -2247.451       6.5703394     -2240.8807     -13755.857    
     11350   137.02411      272.43616     -2246.8812      5.9865735     -2240.8946     -14365.099    
     11400   147.01343      292.2973      -2247.3253      6.4230065     -2240.9023     -13528.844    
     11450   140.57137      279.48895     -2247.0492      6.141553      -2240.9076     -13326.103    
     11500   136.35749      271.11077     -2246.8748      5.9574489     -2240.9173     -15235.155    
     11550   151.13143      300.48484     -2247.5366      6.6029214     -2240.9337     -13407.872    
     11600   146.12311      290.52712     -2247.3211      6.3841082     -2240.937      -12787.751    
     11650   149.07635      296.39887     -2247.4613      6.5131353     -2240.9482     -11719.882    
     11700   149.49193      297.22514     -2247.4864      6.531292      -2240.9551     -14560.51     
     11750   148.11048      294.47849     -2247.436       6.4709364     -2240.965      -15866.39     
     11800   146.54067      291.35733     -2247.376       6.4023515     -2240.9737     -10008.984    
     11850   148.12699      294.51132     -2247.4535      6.4716578     -2240.9819     -13330.71     
     11900   145.32964      288.94951     -2247.3417      6.3494415     -2240.9923     -13426.355    
     11950   138.75605      275.87968     -2247.0565      6.0622422     -2240.9942     -15461.069    
     12000   144.0786       286.46215     -2247.2954      6.2947837     -2241.0006     -13949.878    
     12050   146.94685      292.16491     -2247.4267      6.4200973     -2241.0066     -15108.645    
     12100   137.66308      273.7066      -2247.0252      6.0144904     -2241.0107     -13025.848    
     12150   143.26023      284.83504     -2247.2715      6.2590291     -2241.0125     -14059.184    
     12200   145.70991      289.70558     -2247.3874      6.3660555     -2241.0213     -13475.931    
     12250   147.77832      293.81807     -2247.4837      6.4564242     -2241.0273     -9808.2245    
     12300   146.89621      292.06423     -2247.4525      6.417885      -2241.0347     -14816.323    
     12350   151.29412      300.80831     -2247.6547      6.6100294     -2241.0447     -13338.381    
     12400   138.72426      275.81648     -2247.1         6.0608533     -2241.0391     -13272.394    
     12450   149.52051      297.28195     -2247.582       6.5325403     -2241.0494     -11287.401    
     12500   146.56672      291.40914     -2247.4462      6.4034898     -2241.0427     -7782.3121    
     12550   137.08301      272.55328     -2247.0338      5.9891469     -2241.0447     -12240.879    
     12600   142.93738      284.19315     -2247.2918      6.2449241     -2241.0468     -14776.511    
     12650   161.0937       320.29218     -2248.0918      7.0381723     -2241.0536     -12913.333    
     12700   142.60184      283.52601     -2247.2808      6.2302643     -2241.0505     -14930.574    
     12750   156.59914      311.35594     -2247.9049      6.8418053     -2241.0631     -13302.054    
     12800   149.06979      296.38582     -2247.5692      6.5128486     -2241.0564     -15685.569    
     12850   149.72747      297.69343     -2247.6026      6.5415823     -2241.061      -12612.097    
     12900   136.49525      271.38467     -2247.0281      5.9634677     -2241.0647     -14450.578    
     12950   135.49704      269.39999     -2246.9832      5.919856      -2241.0634     -12395.028    
     13000   151.0449       300.3128      -2247.6626      6.599141      -2241.0634     -15064.137    
     13050   152.97306      304.14644     -2247.748       6.6833822     -2241.0647     -13152.618    
     13100   152.41124      303.02941     -2247.7182      6.6588363     -2241.0594     -13021.183    
     13150   167.75663      333.53965     -2248.4004      7.3292751     -2241.0711     -12630.068    
     13200   135.11042      268.6313      -2246.965       5.9029646     -2241.062      -11363.266    
     13250   150.31163      298.85489     -2247.6374      6.5671045     -2241.0703     -11961.909    
     13300   141.36164      281.06021     -2247.2365      6.1760802     -2241.0605     -9293.1852    
     13350   134.98032      268.37264     -2246.9602      5.8972807     -2241.0629     -12343.327    
     13400   138.82729      276.02132     -2247.1284      6.0653545     -2241.0631     -10883.704    
     13450   155.40299      308.97772     -2247.8488      6.7895458     -2241.0593     -13750.302    
     13500   152.65086      303.50584     -2247.732       6.6693054     -2241.0626     -11352.475    
     13550   147.89995      294.0599      -2247.5199      6.4617383     -2241.0581     -14254.643    
     13600   141.75062      281.83358     -2247.2472      6.1930744     -2241.0542     -12605.961    
     13650   142.38811      283.10107     -2247.2656      6.2209265     -2241.0447     -14739.127    
     13700   137.91764      274.21272     -2247.0652      6.025612      -2241.0396     -12503.144    
     13750   146.36264      291.00336     -2247.4326      6.3945732     -2241.038      -16878.291    
     13800   162.7277       323.54095     -2248.148       7.1095616     -2241.0384     -13864.369    
     13850   163.04665      324.17511     -2248.1549      7.1234967     -2241.0314     -15348.485    
     13900   159.10503      316.33825     -2247.9795      6.9512877     -2241.0282     -12088.69     
     13950   154.46836      307.11945     -2247.7767      6.7487119     -2241.028      -12616.844    
     14000   140.90499      280.15227     -2247.1697      6.1561289     -2241.0136     -12214.364    
     14050   134.69413      267.80362     -2246.8931      5.8847769     -2241.0084     -12299.938    
     14100   145.43518      289.15935     -2247.3567      6.3540525     -2241.0027     -12197.906    
     14150   143.94522      286.19696     -2247.2841      6.2889564     -2240.9952     -13684.429    
     14200   154.46077      307.10435     -2247.7401      6.7483799     -2240.9917     -12090.3      
     14250   154.17773      306.54161     -2247.7199      6.7360141     -2240.9839     -15875.337    
     14300   142.42826      283.1809      -2247.1976      6.2226807     -2240.975      -11185.357    
     14350   136.11735      270.63332     -2246.9075      5.9469575     -2240.9606     -18317.725    
     14400   148.88732      296.02302     -2247.4645      6.5048764     -2240.9596     -13458.469    
     14450   134.48412      267.38607     -2246.8183      5.8756015     -2240.9427     -13506.158    
     14500   152.98078      304.16178     -2247.6257      6.6837193     -2240.942      -13505.162    
     14550   139.17034      276.70337     -2247.011       6.0803421     -2240.9307     -14298.738    
     14600   155.25079      308.6751      -2247.707       6.7828959     -2240.9241     -13901.887    
     14650   148.75459      295.75913     -2247.4082      6.4990776     -2240.9091     -15547.567    
     14700   143.55452      285.42017     -2247.168       6.2718868     -2240.8961     -14287.451    
     14750   135.73353      269.87019     -2246.8168      5.9301882     -2240.8866     -13359.286    
     14800   153.13607      304.47055     -2247.5637      6.6905042     -2240.8732     -14208.111    
     14850   152.42336      303.05349     -2247.5229      6.6593656     -2240.8635     -11740.958    
     14900   150.31035      298.85234     -2247.4202      6.5670485     -2240.8531     -14602.734    
     14950   146.52081      291.31784     -2247.2403      6.4014837     -2240.8388     -14074.483    
     15000   146.7294       291.73257     -2247.2354      6.4105969     -2240.8248     -13296.082    
     15050   146.04446      290.37075     -2247.1921      6.380672      -2240.8114     -13851.121    
     15100   157.58778      313.32159     -2247.6849      6.884999      -2240.7999     -12088.414    
     15150   159.12539      316.37872     -2247.7413      6.9521771     -2240.7891     -13995.385    
     15200   137.11896      272.62475     -2246.7539      5.9907175     -2240.7631     -13327.284    
     15250   146.64213      291.55906     -2247.1506      6.4067844     -2240.7438     -12409.482    
     15300   134.84035      268.09435     -2246.6212      5.8911654     -2240.73       -11891.635    
     15350   157.17274      312.49639     -2247.5864      6.8668658     -2240.7196     -15444.168    
     15400   151.3703       300.95977     -2247.317       6.6133577     -2240.7036     -11660.192    
     15450   149.42624      297.09453     -2247.2146      6.528422      -2240.6862     -12886.939    
     15500   155.91178      309.98931     -2247.4831      6.8117747     -2240.6713     -11192.139    
     15550   138.5859       275.54137     -2246.7096      6.054808      -2240.6548     -14014.005    
     15600   157.76409      313.67212     -2247.5326      6.8927017     -2240.6399     -11873.663    
     15650   138.50903      275.38854     -2246.6729      6.0514497     -2240.6215     -12379.883    
     15700   152.56028      303.32574     -2247.2733      6.665348      -2240.6079     -11835.842    
     15750   147.15147      292.57175     -2247.0168      6.4290373     -2240.5877     -12962.812    
     15800   150.12494      298.4837      -2247.1286      6.5589479     -2240.5697     -13254.465    
     15850   152.51799      303.24164     -2247.2196      6.6635        -2240.5561     -13218.252    
     15900   147.87146      294.00326     -2247.0073      6.4604938     -2240.5468     -14582.624    
     15950   140.96213      280.26587     -2246.6795      6.1586253     -2240.5208     -16593.293    
     16000   152.9503       304.10119     -2247.1897      6.682388      -2240.5073     -13070.129    
     16050   145.31614      288.92268     -2246.8265      6.3488518     -2240.4776     -13749.8      
     16100   153.78217      305.75515     -2247.1817      6.7187323     -2240.4629     -12712.907    
     16150   147.20645      292.68106     -2246.8727      6.4314394     -2240.4413     -12437.207    
     16200   156.49534      311.14955     -2247.2594      6.8372701     -2240.4222     -14207.785    
     16250   157.19903      312.54865     -2247.2733      6.8680142     -2240.4053     -11467.768    
     16300   146.73912      291.75189     -2246.7922      6.4110216     -2240.3812     -14246.996    
     16350   153.80664      305.8038      -2247.08        6.7198014     -2240.3602     -14857.829    
     16400   152.83693      303.87578     -2247.0229      6.6774347     -2240.3455     -12334.188    
     16450   138.15631      274.68726     -2246.3497      6.0360396     -2240.3136     -14530.811    
     16500   156.54849      311.25524     -2247.1359      6.8395926     -2240.2963     -12874.095    
     16550   137.6788       273.73785     -2246.2784      6.015177      -2240.2632     -12592.194    
     16600   162.01058      322.11515     -2247.3271      7.0782307     -2240.2488     -14951.56     
     16650   161.09423      320.29323     -2247.2635      7.0381954     -2240.2253     -13216.487    
     16700   147.62996      293.52309     -2246.6516      6.4499423     -2240.2016     -11898.755    
     16750   170.36958      338.73482     -2247.6264      7.443435      -2240.1829     -12035.229    
     16800   144.88543      288.06632     -2246.4885      6.330034      -2240.1585     -14260.105    
     16850   159.86058      317.84044     -2247.1269      6.9842972     -2240.1426     -13668.511    
     16900   159.35373      316.83271     -2247.0815      6.9621531     -2240.1194     -13202.3      
     16950   141.46801      281.2717      -2246.2768      6.1807275     -2240.0961     -14879.933    
     17000   155.02697      308.23009     -2246.8531      6.7731172     -2240.08       -14265.985    
     17050   148.16878      294.5944      -2246.5296      6.4734835     -2240.0561     -13558.085    
     17100   149.49314      297.22754     -2246.558       6.5313448     -2240.0267     -12915.971    
     17150   156.06305      310.29007     -2246.8298      6.8183838     -2240.0114     -14080.806    
     17200   147.45816      293.18152     -2246.428       6.4424365     -2239.9856     -12912.645    
     17250   161.77132      321.63944     -2247.0403      7.0677773     -2239.9725     -13304.803    
     17300   155.13166      308.43823     -2246.7261      6.777691      -2239.9484     -13478.319    
     17350   154.61633      307.41365     -2246.675       6.7551766     -2239.9198     -13573.824    
     17400   155.61354      309.39632     -2246.7064      6.7987443     -2239.9076     -11570.559    
     17450   151.33427      300.88814     -2246.497       6.6117837     -2239.8852     -12769.75     
     17500   152.02108      302.25368     -2246.5082      6.6417902     -2239.8665     -12366.027    
     17550   161.6464       321.39107     -2246.908       7.0623197     -2239.8457     -12840.796    
     17600   167.33073      332.69286     -2247.1368      7.3106677     -2239.8262     -11358.463    
     17650   178.77895      355.45463     -2247.6244      7.8108398     -2239.8135     -16136.336    
     17700   152.02772      302.26688     -2246.4343      6.6420804     -2239.7922     -11033.394    
     17750   164.98386      328.02674     -2246.9857      7.2081332     -2239.7775     -11858.762    
     17800   161.45067      321.00191     -2246.8093      7.0537681     -2239.7555     -10906.422    
     17850   166.74         331.51836     -2247.0295      7.2848589     -2239.7446     -15422.732    
     17900   167.81361      333.65294     -2247.0647      7.3317647     -2239.7329     -13440.221    
     17950   169.83188      337.66574     -2247.1385      7.4199429     -2239.7186     -10853.979    
     18000   161.79462      321.68578     -2246.7698      7.0687956     -2239.7011     -11219.191    
     18050   164.18583      326.44005     -2246.8622      7.1732671     -2239.6889     -13272.384    
     18100   166.27355      330.59094     -2246.9462      7.2644796     -2239.6817     -11054.192    
     18150   166.32953      330.70224     -2246.9343      7.2669254     -2239.6674     -15060.242    
     18200   154.42319      307.02964     -2246.4056      6.7467382     -2239.6589     -10612.371    
     18250   158.8772       315.88526     -2246.5871      6.9413337     -2239.6457     -15416.794    
     18300   159.45347      317.03102     -2246.6075      6.9665109     -2239.641      -11994.313    
     18350   161.67063      321.43924     -2246.6965      7.0633781     -2239.6331     -15348.792    
     18400   155.62373      309.41659     -2246.4186      6.7991897     -2239.6194     -14780.879    
     18450   162.67977      323.44566     -2246.7241      7.1074677     -2239.6166     -10853.523    
     18500   151.43169      301.08183     -2246.2272      6.6160397     -2239.6111     -16538.854    
     18550   157.55338      313.25319     -2246.4846      6.883496      -2239.6011     -13370.933    
     18600   155.73447      309.63677     -2246.3997      6.804028      -2239.5957     -12730.453    
     18650   163.04662      324.17505     -2246.7183      7.1234954     -2239.5948     -10553.825    
     18700   154.57277      307.32703     -2246.3456      6.7532732     -2239.5923     -14968.913    
     18750   150.91465      300.05383     -2246.1849      6.5934502     -2239.5915     -15033.397    
     18800   163.29545      324.66977     -2246.7187      7.1343665     -2239.5843     -13498.694    
     18850   149.79259      297.82291     -2246.1291      6.5444276     -2239.5846     -13862.48     
     18900   160.77622      319.66095     -2246.6024      7.0243015     -2239.5781     -13041.147    
     18950   155.71788      309.60379     -2246.3761      6.8033033     -2239.5728     -10743.35     
     19000   167.35367      332.73847     -2246.8793      7.31167       -2239.5676     -13659.281    
     19050   156.09101      310.34565     -2246.3921      6.8196049     -2239.5725     -13241.698    
     19100   150.49922      299.22786     -2246.1382      6.5753003     -2239.5629     -13477.325    
     19150   156.07498      310.31379     -2246.3879      6.818905      -2239.569      -12266.263    
     19200   154.17922      306.54457     -2246.2912      6.7360792     -2239.5551     -13929.82     
     19250   158.21774      314.5741      -2246.4761      6.912522      -2239.5636     -11817.963    
     19300   152.02484      302.26114     -2246.2007      6.6419543     -2239.5587     -14887.815    
     19350   161.63881      321.37598     -2246.6157      7.0619881     -2239.5537     -13083.133    
     19400   170.96279      339.91425     -2247.0492      7.4693521     -2239.5798     -15338.473    
     19450   159.81874      317.75726     -2246.5459      6.9824693     -2239.5635     -16230.585    
     19500   152.79003      303.78253     -2246.2449      6.6753855     -2239.5695     -13043.66     
     19550   157.64701      313.43936     -2246.4609      6.8875869     -2239.5733     -15519.656    
     19600   158.67072      315.47473     -2246.5024      6.9323126     -2239.5701     -13262.599    
     19650   163.20697      324.49386     -2246.7076      7.130501      -2239.5771     -14311.814    
     19700   147.74413      293.75008     -2246.0303      6.4549304     -2239.5754     -14647.36     
     19750   160.68689      319.48334     -2246.6044      7.0203986     -2239.584      -15109.934    
     19800   147.0475       292.36502     -2246.0083      6.4244947     -2239.5838     -10202.921    
     19850   157.85404      313.85097     -2246.4832      6.8966317     -2239.5866     -15244.982    
     19900   146.1613       290.60306     -2245.9759      6.385777      -2239.5901     -13053.091    
     19950   163.41317      324.90383     -2246.7383      7.1395098     -2239.5988     -11612.926    
     20000   155.85642      309.87923     -2246.4055      6.8093557     -2239.5961     -13779.505    
     20050   148.56742      295.38699     -2246.095       6.4909        -2239.6041     -13303.796    
     20100   162.93752      323.95814     -2246.7399      7.1187289     -2239.6212     -13503.848    
     20150   147.48631      293.23749     -2246.0588      6.4436664     -2239.6151     -13321.306    
     20200   155.62711      309.42331     -2246.422       6.7993374     -2239.6226     -13962.417    
     20250   155.07058      308.3168      -2246.4129      6.7750227     -2239.6379     -11421.026    
     20300   146.34749      290.97325     -2246.0403      6.3939115     -2239.6464     -13712.734    
     20350   157.61769      313.38105     -2246.5444      6.8863056     -2239.6581     -10904.021    
     20400   159.35898      316.84315     -2246.6335      6.9623827     -2239.6711     -14484.055    
     20450   156.96169      312.07677     -2246.5359      6.857645      -2239.6783     -11513.92     
     20500   157.92817      313.99836     -2246.5932      6.8998704     -2239.6933     -12873.475    
     20550   164.78526      327.63186     -2246.9157      7.1994561     -2239.7162     -13242.961    
     20600   158.1185       314.37678     -2246.6314      6.908186      -2239.7232     -13957.927    
     20650   166.33173      330.70661     -2247.0203      7.2670214     -2239.7533     -11762.341    
     20700   161.78057      321.65784     -2246.8427      7.0681816     -2239.7745     -11637.177    
     20750   151.36131      300.9419      -2246.4018      6.612965      -2239.7889     -11169.846    
     20800   163.49812      325.07272     -2246.9543      7.1432211     -2239.8111     -14324.867    
     20850   170.08055      338.16016     -2247.2641      7.4308073     -2239.8333     -15830.706    
     20900   159.44527      317.01471     -2246.8222      6.9661525     -2239.856      -14651.63     
     20950   154.59474      307.37071     -2246.6444      6.7542331     -2239.8901     -11454.031    
     21000   155.78828      309.74375     -2246.7183      6.8063787     -2239.9119     -14318.629    
     21050   154.40246      306.98843     -2246.6853      6.7458327     -2239.9395     -13091.596    
     21100   169.65424      337.31255     -2247.3861      7.4121818     -2239.9739     -13326.854    
     21150   165.57239      329.19686     -2247.2404      7.2338458     -2240.0066     -14521.507    
     21200   152.43318      303.07303     -2246.7092      6.6597947     -2240.0494     -12029.061    
     21250   154.49188      307.16621     -2246.8349      6.7497394     -2240.0852     -14428.503    
     21300   149.72145      297.68148     -2246.6665      6.5413196     -2240.1252     -12616.653    
     21350   152.37614      302.95962     -2246.818       6.6573028     -2240.1607     -13779.879    
     21400   143.94589      286.1983      -2246.4989      6.2889857     -2240.2099     -14424.481    
     21450   152.81126      303.82475     -2246.9269      6.6763132     -2240.2506     -10036.518    
     21500   151.61081      301.43795     -2246.9104      6.6238653     -2240.2865     -14502.559    
     21550   151.27004      300.76044     -2246.9398      6.6089775     -2240.3308     -14903.326    
     21600   153.79992      305.79043     -2247.09        6.7195075     -2240.3705     -14994.487    
     21650   160.30742      318.72887     -2247.4237      7.0038198     -2240.4199     -11352.472    
     21700   139.96916      278.29163     -2246.5781      6.1152427     -2240.4628     -12478.95     
     21750   156.06486      310.29367     -2247.3242      6.8184627     -2240.5057     -13207.638    
     21800   145.27312      288.83715     -2246.8898      6.3469724     -2240.5428     -13555.049    
     21850   151.51943      301.25628     -2247.2096      6.6198732     -2240.5898     -11603.695    
     21900   153.97981      306.1481      -2247.3608      6.7273671     -2240.6334     -15461.176    
     21950   139.90994      278.17388     -2246.781       6.1126553     -2240.6684     -10460.265    
     22000   143.1718       284.65923     -2246.9638      6.2551659     -2240.7086     -14783.657    
     22050   151.41366      301.04599     -2247.3664      6.6152522     -2240.7511     -11562.088    
     22100   150.55387      299.33652     -2247.3609      6.577688      -2240.7832     -12143.845    
     22150   144.51066      287.32119     -2247.1357      6.3136605     -2240.822      -11872.607    
     22200   155.91167      309.98909     -2247.6699      6.81177       -2240.8581     -11135.855    
     22250   145.27752      288.84589     -2247.2367      6.3471645     -2240.8895     -15557.649    
     22300   156.86598      311.88648     -2247.7675      6.8534636     -2240.9141     -14912.21     
     22350   151.9321       302.07676     -2247.5882      6.6379027     -2240.9503     -10949.706    
     22400   139.56097      277.48005     -2247.0633      6.097409      -2240.9658     -12661.266    
     22450   146.16051      290.60148     -2247.3825      6.3857421     -2240.9968     -14405.951    
     22500   150.90849      300.04158     -2247.6141      6.593181      -2241.0209     -13355.267    
     22550   149.90061      298.03768     -2247.6004      6.549147      -2241.0512     -12261.785    
     22600   145.4577       289.20414     -2247.4289      6.3550367     -2241.0738     -11854.628    
     22650   147.50379      293.27223     -2247.5357      6.4444299     -2241.0913     -12140.493    
     22700   140.50872      279.3644      -2247.2489      6.138816      -2241.1101     -14000.997    
     22750   148.01151      294.28171     -2247.5933      6.4666125     -2241.1267     -13402.329    
     22800   137.35541      273.09487     -2247.1456      6.0010481     -2241.1446     -13126.207    
     22850   153.4369       305.06865     -2247.8659      6.7036471     -2241.1622     -12934.981    
     22900   148.08366      294.42516     -2247.6506      6.4697647     -2241.1808     -12559.975    
     22950   140.94406      280.22995     -2247.3514      6.1578358     -2241.1936     -14313.548    
     23000   138.92972      276.22497     -2247.2736      6.0698294     -2241.2038     -12432.078    
     23050   128.97017      256.42303     -2246.8471      5.6346974     -2241.2124     -11741.952    
     23100   137.23661      272.85868     -2247.2196      5.9958578     -2241.2237     -13754.874    
     23150   142.08238      282.49321     -2247.4527      6.2075692     -2241.2451     -12852.73     
     23200   138.93856      276.24255     -2247.3198      6.0702159     -2241.2496     -17188.612    
     23250   145.388        289.06556     -2247.6112      6.3519915     -2241.2592     -14367.771    
     23300   146.71822      291.71034     -2247.6837      6.4101085     -2241.2736     -13681.097    
     23350   139.38684      277.13384     -2247.3651      6.0898012     -2241.2753     -12719.37     
     23400   144.09307      286.49093     -2247.5796      6.2954161     -2241.2842     -14914.616    
     23450   155.41923      309.00999     -2248.083       6.790255      -2241.2928     -15325.978    
     23500   135.11505      268.64051     -2247.1973      5.9031669     -2241.2941     -14622.423    
     23550   147.03959      292.34931     -2247.7294      6.4241494     -2241.3052     -12716.193    
     23600   151.57401      301.36481     -2247.9379      6.6222579     -2241.3157     -15931.602    
     23650   143.1957       284.70675     -2247.5717      6.2562101     -2241.3155     -13993.335    
     23700   146.84389      291.96021     -2247.7323      6.4155992     -2241.3167     -14948.254    
     23750   139.36427      277.08895     -2247.4066      6.0888149     -2241.3177     -12197.934    
     23800   145.36822      289.02623     -2247.6769      6.3511272     -2241.3257     -12828.179    
     23850   140.55921      279.46477     -2247.468       6.1410217     -2241.3269     -12838.291    
     23900   145.32407      288.93845     -2247.6805      6.3491983     -2241.3313     -12823.351    
     23950   146.30352      290.88583     -2247.7219      6.3919906     -2241.33       -14870.702    
     24000   149.12966      296.50485     -2247.8487      6.5154643     -2241.3332     -11470.072    
     24050   146.0851       290.45155     -2247.7175      6.3824477     -2241.3351     -16365.024    
     24100   143.75788      285.82449     -2247.6169      6.2807716     -2241.3362     -14075.123    
     24150   144.4224       287.14571     -2247.6482      6.3098044     -2241.3384     -11845.688    
     24200   148.33199      294.91889     -2247.8237      6.4806139     -2241.3431     -12079.815    
     24250   143.9585       286.22337     -2247.6292      6.2895366     -2241.3397     -13688.85     
     24300   158.3636       314.8641      -2248.2608      6.9188945     -2241.3419     -12975.033    
     24350   156.86159      311.87775     -2248.1962      6.8532718     -2241.343      -12081.46     
     24400   142.83604      283.99165     -2247.5781      6.2404963     -2241.3376     -14580.248    
     24450   148.52258      295.29783     -2247.8329      6.488941      -2241.344      -12919.301    
     24500   152.01201      302.23565     -2247.9849      6.6413941     -2241.3435     -11886.173    
     24550   143.38241      285.07796     -2247.6076      6.2643672     -2241.3433     -11439.883    
     24600   140.87384      280.09034     -2247.4885      6.154768      -2241.3337     -12288.551    
     24650   146.92342      292.11833     -2247.7518      6.4190739     -2241.3327     -13103.08     
     24700   152.98725      304.17465     -2248.0167      6.6840021     -2241.3327     -12380.188    
     24750   156.23837      310.63864     -2248.1599      6.8260433     -2241.3339     -13360.199    
     24800   142.55799      283.43883     -2247.5603      6.2283485     -2241.332      -14251.058    
     24850   139.96535      278.28405     -2247.4396      6.1150763     -2241.3245     -14095.659    
     24900   131.56947      261.59107     -2247.0677      5.7482609     -2241.3195     -10379.375    
     24950   144.37838      287.05819     -2247.625       6.3078811     -2241.3172     -12668.098    
     25000   136.20271      270.80303     -2247.2598      5.9506866     -2241.3091     -14467.061    
     25050   134.35832      267.13595     -2247.1795      5.8701055     -2241.3094     -12809.969    
     25100   154.92215      308.02168     -2248.0805      6.7685376     -2241.312      -14560.59     
     25150   145.93639      290.15588     -2247.6806      6.3759506     -2241.3046     -13887.837    
     25200   154.68014      307.54052     -2248.0564      6.7579644     -2241.2984     -11257.992    
     25250   142.65769      283.63705     -2247.5251      6.2327042     -2241.2924     -12547.195    
     25300   137.11278      272.61247     -2247.2786      5.9904477     -2241.2881     -12775.581    
     25350   149.11969      296.48503     -2247.7915      6.5150286     -2241.2764     -14403.894    
     25400   162.11094      322.31469     -2248.3675      7.0826154     -2241.2848     -12952.651    
     25450   152.07296      302.35683     -2247.9128      6.6440568     -2241.2687     -12831.98     
     25500   135.10822      268.62694     -2247.1683      5.9028687     -2241.2655     -14127.297    
     25550   153.50417      305.20241     -2247.9614      6.7065863     -2241.2548     -14776.766    
     25600   143.01319      284.34388     -2247.4971      6.2482363     -2241.2488     -12555.166    
     25650   147.49313      293.25105     -2247.6896      6.4439645     -2241.2457     -15222.218    
     25700   154.34415      306.87248     -2247.9799      6.7432848     -2241.2366     -10825.201    
     25750   147.15703      292.58281     -2247.6605      6.4292804     -2241.2312     -12941.873    
     25800   139.15664      276.67613     -2247.2972      6.0797435     -2241.2174     -12805.303    
     25850   142.20503      282.73705     -2247.4232      6.2129275     -2241.2103     -14558.913    
     25900   138.03319      274.44245     -2247.2327      6.0306601     -2241.202      -13165.92     
     25950   142.2652       282.8567      -2247.4077      6.2155567     -2241.1922     -14063.628    
     26000   143.46514      285.24246     -2247.4485      6.2679819     -2241.1805     -14068.957    
     26050   156.61741      311.39227     -2248.0195      6.8426037     -2241.1769     -13617.333    
     26100   148.91915      296.08632     -2247.6677      6.5062673     -2241.1615     -14503.93     
     26150   145.12988      288.55235     -2247.4885      6.3407141     -2241.1478     -12902.911    
     26200   140.85285      280.04861     -2247.286       6.1538511     -2241.1322     -12397.693    
     26250   136.56349      271.52034     -2247.0868      5.9664491     -2241.1204     -14154.258    
     26300   141.09906      280.53814     -2247.2726      6.1646081     -2241.108      -15084.103    
     26350   154.70137      307.58273     -2247.855       6.7588921     -2241.0961     -15569.407    
     26400   140.44007      279.2279      -2247.2163      6.1358167     -2241.0805     -14878.968    
     26450   142.92769      284.17387     -2247.3117      6.2445004     -2241.0672     -14618.572    
     26500   152.07221      302.35534     -2247.6983      6.6440241     -2241.0543     -12434.548    
     26550   148.6412       295.53368     -2247.5304      6.4941235     -2241.0363     -13443.911    
     26600   149.35242      296.94775     -2247.5446      6.5251966     -2241.0194     -12972.456    
     26650   149.27314      296.79013     -2247.5209      6.521733      -2240.9992     -15725.245    
     26700   146.808        291.88885     -2247.3993      6.4140313     -2240.9853     -12510.731    
     26750   147.01939      292.30914     -2247.3946      6.4232668     -2240.9713     -12271.536    
     26800   157.79078      313.72521     -2247.8524      6.8938682     -2240.9586     -12243.757    
     26850   149.54764      297.3359      -2247.4717      6.5337259     -2240.938      -13963.364    
     26900   140.05172      278.45577     -2247.0376      6.1188495     -2240.9188     -14610.881    
     26950   144.8406       287.9772      -2247.2303      6.3280757     -2240.9022     -14076.272    
     27000   143.32447      284.96278     -2247.1485      6.261836      -2240.8867     -9524.7395    
     27050   143.78908      285.88653     -2247.1553      6.2821349     -2240.8731     -15468.583    
     27100   143.70441      285.71817     -2247.1299      6.2784353     -2240.8515     -12126.977    
     27150   133.22384      264.88034     -2246.643       5.8205402     -2240.8224     -14034.934    
     27200   151.9022       302.01732     -2247.4472      6.6365964     -2240.8106     -14373.197    
     27250   154.43149      307.04615     -2247.5423      6.747101      -2240.7952     -10477.548    
     27300   160.74318      319.59527     -2247.7968      7.0228582     -2240.774      -10961.284    
     27350   145.56702      289.42148     -2247.1084      6.3598126     -2240.7486     -12331.241    
     27400   156.80338      311.76202     -2247.5788      6.8507288     -2240.728      -11361.141    
     27450   163.45655      324.99008     -2247.8553      7.141405      -2240.7139     -13603.485    
     27500   150.76464      299.75559     -2247.2729      6.5868966     -2240.686      -11748.455    
     27550   145.6029       289.49283     -2247.0242      6.3613806     -2240.6629     -10544.47     
     27600   158.97422      316.07815     -2247.5954      6.9455723     -2240.6498     -11775.939    
     27650   145.72311      289.73183     -2246.9973      6.3666324     -2240.6307     -13794.613    
     27700   157.72943      313.60323     -2247.4962      6.8911878     -2240.605      -14091.086    
     27750   141.7147       281.76217     -2246.7788      6.1915052     -2240.5873     -10463.273    
     27800   163.6164       325.30789     -2247.7249      7.1483887     -2240.5765     -13780.817    
     27850   157.69215      313.52909     -2247.442       6.8895587     -2240.5525     -12089.786    
     27900   137.23158      272.84867     -2246.5246      5.995638      -2240.529      -12925.737    
     27950   155.9469       310.05914     -2247.3262      6.8133091     -2240.5129     -13821.388    
     28000   149.48633      297.214       -2247.0268      6.5310473     -2240.4957     -13495.415    
     28050   144.14644      286.59703     -2246.7785      6.2977476     -2240.4807     -12365.455    
     28100   157.47258      313.09255     -2247.3407      6.8799659     -2240.4607     -10951.949    
     28150   158.0944       314.32886     -2247.346       6.9071329     -2240.4388     -13956.711    
     28200   154.05044      306.28852     -2247.1538      6.7304528     -2240.4233     -13544.337    
     28250   163.78766      325.64842     -2247.5638      7.1558714     -2240.4079     -12997.444    
     28300   153.69465      305.58112     -2247.1004      6.7149083     -2240.3855     -11368.132    
     28350   161.51611      321.13203     -2247.4323      7.0566274     -2240.3757     -13833.855    
     28400   152.98897      304.17806     -2247.0386      6.6840771     -2240.3545     -14609.334    
     28450   165.97907      330.00545     -2247.5963      7.2516138     -2240.3447     -10227.649    
     28500   155.3818       308.93557     -2247.1164      6.7886197     -2240.3278     -12942.831    
     28550   149.70355      297.64588     -2246.8536      6.5405374     -2240.3131     -13572.636    
     28600   171.00775      340.00365     -2247.7748      7.4713166     -2240.3035     -9699.6171    
     28650   144.64683      287.59194     -2246.6007      6.3196098     -2240.2811     -14721.69     
     28700   161.85876      321.8133      -2247.3506      7.0715979     -2240.279      -13050.28     
     28750   143.19485      284.70506     -2246.5205      6.2561729     -2240.2643     -12920.346    
     28800   164.84562      327.75188     -2247.459       7.2020935     -2240.2569     -13304.451    
     28850   151.60191      301.42026     -2246.8607      6.6234765     -2240.2372     -15770.219    
     28900   146.25267      290.78472     -2246.6187      6.3897688     -2240.229      -13187.712    
     28950   156.28447      310.73031     -2247.047       6.8280576     -2240.2189     -11825.591    
     29000   147.93729      294.13415     -2246.6675      6.4633699     -2240.2041     -15239.977    
     29050   159.14628      316.42025     -2247.1454      6.9530897     -2240.1923     -14058.324    
     29100   156.02718      310.21875     -2246.9986      6.8168164     -2240.1818     -11542.916    
     29150   138.03135      274.43881     -2246.1958      6.0305801     -2240.1652     -13937.455    
     29200   151.92906      302.07071     -2246.7966      6.6377697     -2240.1589     -14293.598    
     29250   161.74083      321.57882     -2247.2132      7.0664452     -2240.1468     -13342.614    
     29300   149.24685      296.73786     -2246.6545      6.5205844     -2240.1339     -13234.717    
     29350   169.24148      336.49188     -2247.5279      7.3941482     -2240.1337     -13356.308    
     29400   156.57706      311.31203     -2246.9547      6.8408405     -2240.1139     -13861.435    
     29450   136.29933      270.99514     -2246.0636      5.954908      -2240.1087     -13731.373    
     29500   155.26102      308.69544     -2246.8833      6.783343      -2240.1        -12357.31     
     29550   158.19379      314.52647     -2247.0011      6.9114754     -2240.0896     -15125.452    
     29600   153.05797      304.31526     -2246.7668      6.6870919     -2240.0797     -11758.633    
     29650   146.04218      290.36622     -2246.4546      6.3805725     -2240.0741     -12493.284    
     29700   145.59397      289.47507     -2246.4278      6.3609902     -2240.0668     -11699.687    
     29750   162.52099      323.12998     -2247.1638      7.1005307     -2240.0632     -15396.614    
     29800   159.68732      317.49596     -2247.0306      6.9767276     -2240.0539     -13604.907    
     29850   154.72145      307.62265     -2246.8063      6.7597691     -2240.0466     -12476.194    
     29900   160.44412      319.00067     -2247.0544      7.0097924     -2240.0446     -12227.448    
     29950   157.01292      312.17864     -2246.8954      6.8598835     -2240.0355     -12170.991    
     30000   158.52104      315.17712     -2246.9557      6.9257728     -2240.0299     -16216.604    
     30050   155.87816      309.92247     -2246.8396      6.8103059     -2240.0293     -14238.973    
     30100   156.06482      310.29358     -2246.8465      6.8184608     -2240.028      -12056.941    
     30150   156.00552      310.17569     -2246.8338      6.8158702     -2240.0179     -14454.739    
     30200   155.15642      308.48747     -2246.7964      6.7787729     -2240.0176     -13575.683    
     30250   145.29134      288.87338     -2246.3528      6.3477684     -2240.005      -16979.01     
     30300   159.21863      316.5641      -2246.9714      6.9562505     -2240.0152     -13373.077    
     30350   156.47209      311.10333     -2246.8362      6.8362544     -2240          -16282.923    
     30400   160.22364      318.56229     -2247.003       7.0001594     -2240.0028     -13802.374    
     30450   146.14862      290.57785     -2246.38        6.385223      -2239.9947     -13141.756    
     30500   147.26267      292.79284     -2246.4257      6.4338956     -2239.9918     -12718.734    
     30550   154.96641      308.10968     -2246.7591      6.7704714     -2239.9886     -12701.82     
     30600   158.48366      315.10281     -2246.9126      6.92414       -2239.9885     -11149.032    
     30650   158.83988      315.81105     -2246.9277      6.9397029     -2239.988      -12806.018    
     30700   155.11106      308.39729     -2246.7618      6.7767913     -2239.985      -15229.101    
     30750   163.89571      325.86324     -2247.1547      7.160592      -2239.9941     -11913.027    
     30800   159.65631      317.4343      -2246.9676      6.9753727     -2239.9922     -12346.887    
     30850   169.83091      337.66381     -2247.4125      7.4199005     -2239.9926     -11962.502    
     30900   160.65879      319.42747     -2247.0101      7.019171      -2239.9909     -15073.56     
     30950   168.60694      335.23027     -2247.3622      7.3664252     -2239.9957     -10989.308    
     31000   162.66003      323.40642     -2247.0998      7.1066052     -2239.9932     -15448.865    
     31050   165.93065      329.90918     -2247.2476      7.2494984     -2239.9981     -11826.18     
     31100   163.25849      324.5963      -2247.1391      7.1327519     -2240.0063     -13216.7      
     31150   142.00939      282.34809     -2246.2133      6.2043804     -2240.0089     -12592.74     
     31200   156.95052      312.05456     -2246.8716      6.857157      -2240.0144     -14469.89     
     31250   160.04059      318.19835     -2247.0171      6.9921621     -2240.0249     -11807.009    
     31300   165.1057       328.26898     -2247.2435      7.2134563     -2240.0301     -12598.198    
     31350   161.53822      321.17598     -2247.1027      7.0575932     -2240.0451     -16771.453    
     31400   178.95289      355.80046     -2247.875       7.8184392     -2240.0565     -14130.442    
     31450   159.16943      316.46629     -2247.0206      6.9541012     -2240.0665     -12595.899    
     31500   151.39056      301.00006     -2246.6916      6.614243      -2240.0773     -13973.142    
     31550   154.83997      307.85829     -2246.8576      6.7649473     -2240.0926     -14223.741    
     31600   159.22251      316.57182     -2247.067       6.9564203     -2240.1106     -10996.427    
     31650   153.18431      304.56645     -2246.8194      6.6926116     -2240.1268     -11349.023    
     31700   157.2192       312.58875     -2247.0135      6.8688955     -2240.1446     -15389.6      
     31750   151.98145      302.17489     -2246.8078      6.6400589     -2240.1678     -12273.558    
     31800   163.9482       325.96759     -2247.35        7.162885      -2240.1871     -14780.564    
     31850   160.33927      318.7922      -2247.2159      7.0052114     -2240.2107     -16219.711    
     31900   163.39067      324.8591      -2247.3743      7.1385268     -2240.2358     -11172.955    
     31950   168.9607       335.93363     -2247.6491      7.3818812     -2240.2673     -14427.585    
     32000   147.59732      293.4582      -2246.7439      6.4485163     -2240.2954     -13525.508    
     32050   143.66607      285.64194     -2246.5923      6.2767602     -2240.3156     -16309.693    
     32100   162.15707      322.40641     -2247.4374      7.0846308     -2240.3527     -12826.489    
     32150   165.22631      328.50877     -2247.6003      7.2187256     -2240.3816     -14174.674    
     32200   161.16622      320.43636     -2247.4635      7.0413405     -2240.4222     -13629.257    
     32250   150.79326      299.81249     -2247.0412      6.5881469     -2240.4531     -13155.518    
     32300   147.87867      294.0176      -2246.9555      6.4608087     -2240.4947     -13084.401    
     32350   153.69262      305.57708     -2247.2537      6.7148195     -2240.5389     -13968.699    
     32400   148.15371      294.56443     -2247.0497      6.4728249     -2240.5769     -16790.975    
     32450   146.96084      292.19272     -2247.0396      6.4207085     -2240.6189     -13525.325    
     32500   154.57623      307.33391     -2247.4151      6.7534245     -2240.6616     -11719.254    
     32550   144.64963      287.59749     -2247.0273      6.319732      -2240.7076     -14361.587    
     32600   150.23605      298.70463     -2247.3125      6.5638026     -2240.7487     -15627.865    
     32650   149.95312      298.14209     -2247.3461      6.5514413     -2240.7947     -13598.928    
     32700   157.40575      312.95968     -2247.7266      6.8770463     -2240.8496     -12845.34     
     32750   150.49397      299.21742     -2247.4635      6.5750708     -2240.8885     -13836.831    
     32800   152.75359      303.71008     -2247.613       6.6737934     -2240.9392     -13432.883    
     32850   147.86352      293.98748     -2247.4422      6.4601469     -2240.9821     -13913.103    
     32900   133.62466      265.67728     -2246.8636      5.8380521     -2241.0256     -13388.879    
     32950   143.88726      286.08172     -2247.3594      6.2864241     -2241.073      -15216.219    
     33000   130.7124       259.88701     -2246.8167      5.7108155     -2241.1059     -11763.176    
     33050   137.52547      273.43299     -2247.1595      6.0084779     -2241.151      -14254.928    
     33100   153.69237      305.57659     -2247.9096      6.7148087     -2241.1948     -12753.277    
     33150   135.30806      269.02426     -2247.1402      5.9115996     -2241.2286     -13596.669    
     33200   141.72145      281.7756      -2247.4514      6.1918003     -2241.2596     -13369.375    
     33250   139.53719      277.43277     -2247.3843      6.0963699     -2241.2879     -14706.767    
     33300   143.0508       284.41866     -2247.5745      6.2498795     -2241.3246     -14657.474    
     33350   145.87163      290.02712     -2247.7215      6.3731211     -2241.3484     -14005.246    
     33400   138.50971      275.3899      -2247.4205      6.0514795     -2241.369      -12369.352    
     33450   132.32817      263.09954     -2247.1753      5.7814084     -2241.3938     -14085.844    
     33500   147.35325      292.97293     -2247.8589      6.437853      -2241.421      -14405.54     
     33550   141.84046      282.01222     -2247.6326      6.1969998     -2241.4356     -12799.33     
     33600   145.25964      288.81035     -2247.8026      6.3463835     -2241.4562     -14628.757    
     33650   147.94714      294.15373     -2247.9362      6.4638002     -2241.4724     -13621.074    
     33700   137.97012      274.31706     -2247.5155      6.0279047     -2241.4876     -14557.43     
     33750   138.45082      275.27281     -2247.5545      6.0489065     -2241.5056     -13923.908    
     33800   144.51302      287.32589     -2247.8379      6.3137637     -2241.5241     -14027.037    
     33850   135.52887      269.46328     -2247.454       5.9212465     -2241.5328     -11451.128    
     33900   140.8286       280.00039     -2247.6973      6.1527914     -2241.5445     -15500.501    
     33950   135.17162      268.75298     -2247.4689      5.9056383     -2241.5633     -12026.384    
     34000   136.95341      272.29561     -2247.5538      5.983485      -2241.5703     -14346.314    
     34050   136.01214      270.42413     -2247.5187      5.9423606     -2241.5763     -12311.598    
     34100   132.24182      262.92784     -2247.364       5.7776355     -2241.5863     -15414.509    
     34150   134.70043      267.81615     -2247.4682      5.8850522     -2241.5832     -14355.178    
     34200   137.50439      273.39107     -2247.601       6.0075568     -2241.5934     -13810.829    
     34250   132.84601      264.12913     -2247.4063      5.8040329     -2241.6023     -12387.969    
     34300   142.65362      283.62897     -2247.8342      6.2325266     -2241.6017     -14492.851    
     34350   142.14967      282.62699     -2247.8217      6.2105091     -2241.6112     -15037.439    
     34400   137.32892      273.0422      -2247.6037      5.9998907     -2241.6038     -13493.15     
     34450   131.47699      261.40718     -2247.3545      5.7442202     -2241.6103     -16196.823    
     34500   135.15523      268.72039     -2247.5154      5.9049223     -2241.6105     -11374.613    
     34550   137.37545      273.13472     -2247.6095      6.0019237     -2241.6076     -13299.51     
     34600   141.76592      281.86401     -2247.8047      6.1937431     -2241.611      -13160.784    
     34650   135.26464      268.93794     -2247.5167      5.9097027     -2241.607      -11027.661    
[...]
    191150   163.59173      325.25885     -2266.6464      7.147311      -2259.4991     -28334.639    
    191200   148.69774      295.6461      -2266.0205      6.4965939     -2259.5239     -27886.787    
    191250   157.21007      312.5706      -2266.4208      6.8684967     -2259.5523     -25410.849    
    191300   158.79154      315.71495     -2266.5053      6.9375912     -2259.5677     -27144.295    
    191350   161.84186      321.77969     -2266.6539      7.0708592     -2259.5831     -23472.163    
    191400   153.46381      305.12216     -2266.2993      6.7048229     -2259.5945     -25463.202    
    191450   150.31085      298.85335     -2266.1834      6.5670706     -2259.6163     -26588.927    
    191500   159.0013       316.13199     -2266.5798      6.9467554     -2259.6331     -23372.842    
    191550   144.10954      286.52366     -2265.9396      6.2961354     -2259.6435     -26631.912    
    191600   148.15736      294.57169     -2266.1331      6.4729844     -2259.6601     -26256.398    
    191650   155.84368      309.8539      -2266.4942      6.8087992     -2259.6854     -25800.861    
    191700   160.10446      318.32533     -2266.6972      6.9949523     -2259.7023     -24269.235    
    191750   158.58204      315.29841     -2266.6462      6.9284382     -2259.7177     -25102.56     
    191800   147.75367      293.76906     -2266.1947      6.4553474     -2259.7393     -24758.307    
    191850   159.0716       316.27177     -2266.7005      6.949827      -2259.7507     -28093.288    
    191900   157.33133      312.81171     -2266.6404      6.8737947     -2259.7666     -28413.6      
    191950   150.09734      298.42884     -2266.3331      6.5577423     -2259.7754     -28602.965    
    192000   154.97513      308.12703     -2266.5659      6.7708525     -2259.795      -25992.172    
    192050   151.00154      300.22659     -2266.4033      6.5972465     -2259.8061     -21764.675    
    192100   155.40744      308.98656     -2266.6126      6.7897401     -2259.8229     -24307.243    
    192150   147.33023      292.92716     -2266.2639      6.4368473     -2259.827      -28246.334    
    192200   145.32646      288.94319     -2266.1825      6.3493025     -2259.8332     -28775.838    
    192250   151.62409      301.46438     -2266.4641      6.6244459     -2259.8397     -22001.341    
    192300   142.4645       283.25296     -2266.0876      6.2242641     -2259.8633     -23311.415    
    192350   137.09192      272.57099     -2265.8578      5.9895362     -2259.8683     -24507.315    
    192400   151.54854      301.31416     -2266.51        6.6211451     -2259.8888     -25041.859    
    192450   156.46856      311.09632     -2266.7323      6.8361004     -2259.8962     -22614.361    
    192500   150.92213      300.06871     -2266.5046      6.5937773     -2259.9108     -22951.92     
    192550   149.05688      296.36014     -2266.4363      6.5122844     -2259.924      -26435.344    
    192600   146.62256      291.52014     -2266.3374      6.4059291     -2259.9314     -25986.699    
    192650   150.80291      299.83167     -2266.534       6.5885685     -2259.9454     -21149.771    
    192700   145.78329      289.85149     -2266.3319      6.3692617     -2259.9626     -25003.595    
    192750   162.86726      323.81843     -2267.0817      7.1156589     -2259.966      -26122.818    
    192800   157.18946      312.52964     -2266.8456      6.8675965     -2259.978      -25579.836    
    192850   148.74217      295.73444     -2266.4901      6.4985351     -2259.9916     -27307.145    
    192900   146.13376      290.5483      -2266.3829      6.3845735     -2259.9984     -23981.459    
    192950   154.86288      307.90385     -2266.7701      6.7659483     -2260.0042     -26814.537    
    193000   156.56562      311.28928     -2266.8588      6.8403406     -2260.0184     -27445.128    
    193050   143.18877      284.69296     -2266.2694      6.2559071     -2260.0135     -21874.032    
    193100   142.87256      284.06427     -2266.2801      6.2420921     -2260.038      -24586.037    
    193150   141.09784      280.5357      -2266.21        6.1645544     -2260.0455     -24102.464    
    193200   144.79971      287.89589     -2266.3839      6.3262889     -2260.0576     -27164.017    
    193250   153.43465      305.06419     -2266.7722      6.7035491     -2260.0687     -24266.115    
    193300   153.77236      305.73564     -2266.7972      6.7183035     -2260.0789     -24054.197    
    193350   151.26741      300.7552      -2266.6961      6.6088623     -2260.0872     -28913.876    
    193400   146.11739      290.51574     -2266.4826      6.3838582     -2260.0988     -29299.385    
    193450   156.59175      311.34123     -2266.9533      6.8414822     -2260.1118     -27528.082    
    193500   146.34695      290.97217     -2266.5077      6.3938879     -2260.1138     -27526.737    
    193550   147.35261      292.97167     -2266.5598      6.4378252     -2260.122      -24420.045    
    193600   154.57081      307.32313     -2266.895       6.7531876     -2260.1418     -21981.621    
    193650   147.38781      293.04164     -2266.583       6.4393628     -2260.1436     -26751.499    
    193700   164.91631      327.89242     -2267.3651      7.2051818     -2260.1599     -23118.104    
    193750   145.25448      288.80009     -2266.5063      6.3461581     -2260.1601     -23505.429    
    193800   160.29488      318.70394     -2267.1765      7.003272      -2260.1732     -21099.864    
    193850   155.33022      308.83302     -2266.9782      6.7863662     -2260.1918     -20126.786    
    193900   156.61029      311.3781      -2267.0456      6.8422922     -2260.2033     -23516.722    
    193950   154.10817      306.4033      -2266.9502      6.732975      -2260.2172     -24979.694    
    194000   162.53562      323.15906     -2267.33        7.1011698     -2260.2288     -27800.315    
    194050   144.8645       288.02471     -2266.5658      6.3291196     -2260.2367     -19615.812    
    194100   143.3115       284.93698     -2266.5087      6.2612693     -2260.2475     -24905.417    
    194150   142.22241      282.77162     -2266.4736      6.213687      -2260.2599     -27737.263    
    194200   152.69789      303.59933     -2266.9377      6.6713599     -2260.2663     -24342.609    
    194250   138.38165      275.13528     -2266.3303      6.0458844     -2260.2844     -25157.906    
    194300   156.15081      310.46455     -2267.1166      6.8222178     -2260.2943     -28165.495    
    194350   146.93315      292.13767     -2266.7219      6.4194987     -2260.3024     -27153.85     
    194400   147.0894       292.44834     -2266.7408      6.4263255     -2260.3145     -28513.081    
    194450   158.27276      314.68348     -2267.2431      6.9149254     -2260.3282     -27331.09     
    194500   148.77116      295.79206     -2266.8367      6.4998012     -2260.3369     -27477.867    
    194550   144.79357      287.88369     -2266.662       6.3260209     -2260.3359     -25980.15     
    194600   135.24569      268.90026     -2266.2538      5.9088747     -2260.3449     -24174.631    
    194650   134.31523      267.05028     -2266.2223      5.8682228     -2260.3541     -28509.006    
    194700   140.99549      280.33221     -2266.5237      6.160083      -2260.3636     -27857.085    
    194750   142.35028      283.02586     -2266.5915      6.2192738     -2260.3722     -30427.075    
    194800   158.46041      315.05658     -2267.3094      6.9231241     -2260.3863     -27872.346    
    194850   154.16764      306.52155     -2267.1294      6.7355734     -2260.3939     -25258.198    
    194900   148.68448      295.61974     -2266.9073      6.4960145     -2260.4113     -24998.671    
    194950   146.72853      291.73083     -2266.8267      6.4105589     -2260.4161     -26199.905    
    195000   153.08055      304.36016     -2267.1031      6.6880785     -2260.4151     -24319.064    
    195050   141.40314      281.14272     -2266.6033      6.1778932     -2260.4254     -25363.296    
    195100   150.91503      300.05459     -2267.0302      6.5934669     -2260.4367     -24181.961    
    195150   146.06415      290.4099      -2266.8267      6.3815325     -2260.4451     -24839.659    
    195200   156.05259      310.26927     -2267.2771      6.8179267     -2260.4592     -26368.632    
    195250   160.78379      319.67601     -2267.4862      7.0246324     -2260.4616     -22529.268    
    195300   164.65887      327.38057     -2267.679       7.1939343     -2260.4851     -23743.689    
    195350   163.37139      324.82077     -2267.6285      7.1376846     -2260.4908     -23429.201    
    195400   153.94959      306.08801     -2267.2178      6.7260468     -2260.4917     -22120.922    
    195450   139.25841      276.87848     -2266.5768      6.0841899     -2260.4926     -23334.834    
    195500   142.38849      283.10182     -2266.7323      6.2209429     -2260.5114     -25215.217    
    195550   148.24754      294.75099     -2267.0054      6.4769245     -2260.5285     -23986.652    
    195600   139.74591      277.84774     -2266.6308      6.1054887     -2260.5253     -22277.058    
    195650   153.41036      305.01589     -2267.2428      6.7024878     -2260.5403     -25029.102    
    195700   143.08999      284.49658     -2266.8042      6.2515917     -2260.5526     -22917.593    
    195750   139.79405      277.94346     -2266.6623      6.1075921     -2260.5548     -24556.666    
    195800   154.65815      307.4968      -2267.335       6.7570037     -2260.578      -26006.036    
    195850   145.7939       289.87259     -2266.949       6.3697253     -2260.5793     -29125.203    
    195900   146.30889      290.89649     -2266.9906      6.3922248     -2260.5984     -26246.847    
    195950   140.08217      278.51632     -2266.7316      6.1201802     -2260.6114     -25173.958    
    196000   149.08965      296.4253      -2267.139       6.513716      -2260.6253     -27016.19     
    196050   142.74502      283.81069     -2266.8607      6.2365198     -2260.6242     -26273.79     
    196100   140.85212      280.04716     -2266.7885      6.1538193     -2260.6346     -27790.25     
    196150   146.38047      291.03882     -2267.0416      6.3953523     -2260.6463     -27549.431    
    196200   146.26785      290.8149      -2267.041       6.3904319     -2260.6505     -23571.946    
    196250   141.07346      280.48723     -2266.823       6.1634895     -2260.6595     -23562.551    
    196300   134.234        266.88878     -2266.5315      5.8646739     -2260.6669     -29989.889    
    196350   139.09756      276.55867     -2266.7486      6.0771624     -2260.6715     -28928.309    
    196400   127.98769      254.46965     -2266.2655      5.5917732     -2260.6737     -26106.554    
    196450   143.06229      284.44149     -2266.9365      6.2503812     -2260.6861     -25354.55     
    196500   138.78488      275.937       -2266.7582      6.0635016     -2260.6947     -23169.518    
    196550   137.47695      273.33652     -2266.7133      6.0063581     -2260.7069     -25901        
    196600   144.95571      288.20605     -2267.0472      6.3331046     -2260.7141     -27223.991    
    196650   159.31825      316.76216     -2267.6791      6.960603      -2260.7185     -27273.513    
    196700   146.34627      290.97082     -2267.119       6.3938582     -2260.7251     -26524.942    
    196750   146.07558      290.43262     -2267.1191      6.3820316     -2260.7371     -30481.77     
    196800   141.11375      280.56734     -2266.9033      6.1652498     -2260.7381     -25934.614    
    196850   161.06857      320.24222     -2267.7877      7.0370746     -2260.7507     -24258.443    
    196900   152.63556      303.47541     -2267.4248      6.6686368     -2260.7561     -25262.598    
    196950   141.18305      280.70512     -2266.9209      6.1682774     -2260.7526     -28306.568    
    197000   141.08793      280.516       -2266.9207      6.1641215     -2260.7565     -25844.285    
    197050   140.82915      280.00148     -2266.9198      6.1528154     -2260.767      -28651.175    
    197100   146.49368      291.26391     -2267.1742      6.4002987     -2260.7739     -24328.504    
    197150   149.45543      297.15256     -2267.3001      6.5296971     -2260.7704     -27023.456    
    197200   144.94267      288.18012     -2267.1121      6.3325348     -2260.7795     -22816.705    
    197250   144.08695      286.47876     -2267.0759      6.2951487     -2260.7808     -20824.479    
    197300   140.15306      278.65726     -2266.9014      6.1232773     -2260.7781     -24541.635    
    197350   139.77809      277.91173     -2266.8956      6.1068947     -2260.7887     -23676.349    
    197400   146.21187      290.7036      -2267.1847      6.3879863     -2260.7967     -28835.933    
    197450   152.54095      303.28731     -2267.4764      6.6645034     -2260.8119     -22261.586    
    197500   148.41167      295.07732     -2267.2962      6.4840954     -2260.8121     -24188.267    
    197550   132.79406      264.02585     -2266.6241      5.8017633     -2260.8223     -27111.614    
    197600   138.41871      275.20896     -2266.8772      6.0475034     -2260.8297     -28551.651    
    197650   139.91157      278.17713     -2266.9527      6.1127267     -2260.84       -28358.204    
    197700   142.96176      284.24162     -2267.0813      6.2459892     -2260.8353     -24117.644    
    197750   147.63472      293.53255     -2267.2922      6.4501503     -2260.8421     -23316.038    
    197800   138.65696      275.68266     -2266.9029      6.0579126     -2260.845      -25909.088    
    197850   150.08719      298.40866     -2267.4059      6.5572989     -2260.8486     -23195.009    
    197900   144.71937      287.73616     -2267.1825      6.322779      -2260.8598     -27079.688    
    197950   146.3143       290.90725     -2267.25        6.3924612     -2260.8575     -26589.695    
    198000   135.50128      269.40842     -2266.7771      5.9200411     -2260.857      -25825.581    
    198050   140.68853      279.7219      -2266.9971      6.146672      -2260.8504     -26886.582    
    198100   145.23237      288.75613     -2267.2089      6.3451921     -2260.8637     -24295.078    
    198150   151.60871      301.4338      -2267.4906      6.623774      -2260.8669     -25240.734    
    198200   150.69569      299.61849     -2267.4635      6.5838841     -2260.8796     -25655.273    
    198250   150.70408      299.63517     -2267.4649      6.5842506     -2260.8806     -22145.246    
    198300   153.78611      305.76298     -2267.5996      6.7189044     -2260.8807     -25302.519    
    198350   151.56031      301.33755     -2267.5031      6.621659      -2260.8815     -26026.326    
    198400   152.1295       302.46924     -2267.5321      6.6465271     -2260.8856     -26847.138    
    198450   144.76133      287.81959     -2267.2083      6.3246123     -2260.8837     -26048.031    
    198500   140.92858      280.19917     -2267.05        6.1571594     -2260.8929     -26167.094    
    198550   132.67997      263.79899     -2266.6931      5.7967783     -2260.8963     -27880.359    
    198600   144.64762      287.5935      -2267.2183      6.3196442     -2260.8987     -27756.555    
    198650   146.68474      291.64378     -2267.309       6.4086459     -2260.9003     -26241.874    
    198700   143.4183       285.14934     -2267.1618      6.2659356     -2260.8959     -26045.746    
    198750   153.9888       306.16596     -2267.6299      6.7277595     -2260.9021     -24299.72     
    198800   146.68932      291.65288     -2267.3142      6.4088458     -2260.9054     -28953.116    
    198850   146.20245      290.68488     -2267.2927      6.3875748     -2260.9051     -30002.874    
    198900   151.224        300.6689      -2267.5163      6.6069659     -2260.9093     -26971.432    
    198950   139.6664       277.68966     -2267.0111      6.1020151     -2260.9091     -28138.471    
    199000   144.04774      286.4008      -2267.2092      6.2934355     -2260.9158     -27836.018    
    199050   130.66968      259.80208     -2266.6224      5.7089492     -2260.9135     -27021.881    
    199100   145.89308      290.06976     -2267.2831      6.3740581     -2260.909      -23753.455    
    199150   142.94543      284.20916     -2267.1546      6.2452759     -2260.9093     -25569.466    
    199200   144.69688      287.69144     -2267.2264      6.3217963     -2260.9046     -25471.014    
    199250   148.68488      295.62053     -2267.396       6.4960318     -2260.9        -28777.761    
    199300   152.0514       302.31397     -2267.5384      6.643115      -2260.8953     -24765.245    
    199350   160.65444      319.41883     -2267.9239      7.0189811     -2260.9049     -22384.395    
    199400   149.84895      297.93497     -2267.4439      6.5468901     -2260.897      -24172.45     
    199450   131.7827       262.01501     -2266.6544      5.7575767     -2260.8968     -22620.931    
    199500   141.09123      280.52256     -2267.0626      6.1642657     -2260.8984     -24385.605    
    199550   147.59363      293.45086     -2267.3524      6.4483552     -2260.904      -26156.002    
    199600   127.64477      253.78783     -2266.4733      5.5767909     -2260.8965     -25986.449    
    199650   141.26034      280.85879     -2267.0746      6.1716541     -2260.9029     -26624.573    
    199700   149.80623      297.85004     -2267.4408      6.5450237     -2260.8958     -24680.268    
    199750   140.5618       279.46993     -2267.0335      6.1411351     -2260.8923     -26495.942    
    199800   142.43872      283.2017      -2267.11        6.2231378     -2260.8869     -25273.864    
    199850   149.00493      296.25685     -2267.3996      6.5100147     -2260.8896     -24521.289    
    199900   152.61385      303.43224     -2267.5512      6.6676883     -2260.8835     -24241.393    
    199950   145.60982      289.50658     -2267.2341      6.3616826     -2260.8725     -22896.436    
    200000   137.93996      274.2571      -2266.89        6.0265871     -2260.8634     -26719.834    
colvars: Saving collective variables state to "out.colvars.state".
colvars:   Writing TI PMF to file "out.metadynamics1.ti.pmf".
Loop time of 980.467 on 4 procs for 200000 steps with 339 atoms

Performance: 8.812 ns/day, 2.724 hours/ns, 203.984 timesteps/s, 69.151 katom-step/s
135.2% CPU use with 4 MPI tasks x 1 OpenMP threads

MPI task timing breakdown:
Section |  min time  |  avg time  |  max time  |%varavg| %total
---------------------------------------------------------------
Pair    | 352.82     | 731.92     | 947.11     | 849.7 | 74.65
Neigh   | 0.080851   | 1.1513     | 2.2177     |  71.4 |  0.12
Comm    | 11.201     | 89.297     | 206.33     | 763.6 |  9.11
Output  | 4.9402     | 5.6578     | 6.4953     |  29.6 |  0.58
Modify  | 11.441     | 150.02     | 561.45     |1939.4 | 15.30
Other   |            | 2.421      |            |       |  0.25

Nlocal:          84.75 ave         146 max           1 min
Histogram: 1 0 0 0 0 0 2 0 0 1
Nghost:           1161 ave        1677 max         545 min
Histogram: 1 0 0 0 0 1 1 0 0 1
Neighs:              0 ave           0 max           0 min
Histogram: 4 0 0 0 0 0 0 0 0 0
FullNghs:      16773.5 ave       34726 max          34 min
Histogram: 1 0 0 1 0 1 0 0 0 1

Total # of neighbors = 67094
Ave neighs/atom = 197.9174
Neighbor list builds = 1964
Dangerous builds = 0
System init for write_data ...
Generated 0 of 6 mixed pair_coeff terms from geometric mixing rule

CITE-CITE-CITE-CITE-CITE-CITE-CITE-CITE-CITE-CITE-CITE-CITE-CITE

Your simulation uses code contributions which should be cited:
- Colvars module (Fiorin2013, plus other works listed for specific features)
The log file lists these citations in BibTeX format.

CITE-CITE-CITE-CITE-CITE-CITE-CITE-CITE-CITE-CITE-CITE-CITE-CITE

Total wall time: 0:16:44
