LAMMPS (2 Aug 2023)
OMP_NUM_THREADS environment is not set. Defaulting to 1 thread. (src/comm.cpp:98)
  using 1 OpenMP thread(s) per MPI task
Loaded 1 plugins from /work/home/baoergen22b/apprepo/deepmd/v2.2.9-dtk23.10/app/lib/deepmd_lmp
package gpu 4
# system
units        metal
dimension    3
atom_style   atomic
boundary     p p f

# 设置原子映射
atom_modify map array

# initial stucture
read_data POSCAR.lmp
Reading data file ...
  orthogonal box = (0 0 0) to (11.328 12.015 32)
  1 by 1 by 4 MPI processor grid
  reading atoms ...
  338 atoms
  read_data CPU = 0.031 seconds
mass      1 55.845
mass      2 15.999
mass      3 1.008
mass      4  35.450
mass      5   51.99610

# potential
pair_style deepmd graph-compress.pb
Summary of lammps deepmd module ...
  >>> Info of deepmd-kit:
  installed to:       /work/home/wys974137909/shangcheng/deepmd-kit/20240715/deepmd-kit_v2.2.9/install
  source:             v2.2.9
  source branch:      HEAD
  source commit:      be43748
  source commit at:   2024-02-04 13:44:12 +0800
  support model ver.: 1.1 
  build variant:      rocm
  build with tf inc:  /work/home/wys974137909/shangcheng/miniconda3/envs/deepmd-kit-v2.2.9/lib/python3.8/site-packages/tensorflow/include;/work/home/wys974137909/shangcheng/miniconda3/envs/deepmd-kit-v2.2.9/lib/python3.8/site-packages/tensorflow/include
  build with tf lib:  /work/home/wys974137909/shangcheng/miniconda3/envs/deepmd-kit-v2.2.9/lib/python3.8/site-packages/tensorflow/lib/libtensorflow_cc.so
  set tf intra_op_parallelism_threads: 0
  set tf inter_op_parallelism_threads: 0
  >>> Info of lammps module:
  use deepmd-kit at:  /work/home/wys974137909/shangcheng/deepmd-kit/20240715/deepmd-kit_v2.2.9/install
  source:             v2.2.9
  source branch:      HEAD
  source commit:      be43748
  source commit at:   2024-02-04 13:44:12 +0800
  build float prec:   double
  build with tf inc:  /work/home/wys974137909/shangcheng/miniconda3/envs/deepmd-kit-v2.2.9/lib/python3.8/site-packages/tensorflow/include;/work/home/wys974137909/shangcheng/miniconda3/envs/deepmd-kit-v2.2.9/lib/python3.8/site-packages/tensorflow/include
  build with tf lib:  /work/home/wys974137909/shangcheng/miniconda3/envs/deepmd-kit-v2.2.9/lib/python3.8/site-packages/tensorflow/lib/libtensorflow_cc.so
pair_coeff * *

# 固定原子受力、速度为 0
group fixed id 1:146  148:168
167 atoms in group fixed
group mobile subtract all fixed
171 atoms in group mobile
fix freeze_fixed fixed setforce 0.0 0.0 0.0
velocity fixed set 0 0 0

# 在z=27处添加硬性反射墙
fix wall1 mobile wall/reflect zhi 27

# 计算mobile组的温度
compute mTemp mobile temp
thermo 50
thermo_style custom step temp c_mTemp pe ke etotal press
velocity mobile  create 298.15 12345 mom yes rot yes

fix ensemble mobile  nvt temp 298.15 298.15 1
fix meta  all colvars pmf.in tstat ensemble
timestep 0.0005
dump trace all custom 1 md.lammpstrj id type x y z
run 200000

CITE-CITE-CITE-CITE-CITE-CITE-CITE-CITE-CITE-CITE-CITE-CITE-CITE

Your simulation uses code contributions which should be cited:

- GPU package (short-range, long-range and three-body potentials): doi:10.1016/j.cpc.2010.12.021, doi:10.1016/j.cpc.2011.10.012, doi:10.1016/j.cpc.2013.08.002, doi:10.1016/j.commatsci.2014.10.068, doi:10.1016/j.cpc.2016.10.020, doi:10.3233/APC200086

@Article{Brown11,
 author = {W. M. Brown and P. Wang and S. J. Plimpton and A. N. Tharrington},
 title = {Implementing Molecular Dynamics on Hybrid High Performance Computers---Short Range Forces},
 journal = {Comput.\ Phys.\ Commun.},
 year =    2011,
 volume =  182,
 pages =   {898--911},
 doi =     {10.1016/j.cpc.2010.12.021}
}

@Article{Brown12,
 author = {W. M. Brown and A. Kohlmeyer and S. J. Plimpton and A. N. Tharrington},
 title = {Implementing Molecular Dynamics on Hybrid High Performance Computers - Particle-Particle Particle-Mesh},
 journal = {Comput.\ Phys.\ Commun.},
 year =    2012,
 volume =  183,
 doi =     {10.1016/j.cpc.2011.10.012},
 pages =   {449--459}
}

@Article{Brown13,
 author = {W. M. Brown and Y. Masako},
 title = {Implementing Molecular Dynamics on Hybrid High Performance Computers---Three-Body Potentials},
 journal = {Comput.\ Phys.\ Commun.},
 year =    2013,
 volume =  184,
 pages =   {2785--2793},
 doi =     {10.1016/j.cpc.2013.08.002},
}

@Article{Trung15,
 author = {T. D. Nguyen and S. J. Plimpton},
 title = {Accelerating Dissipative Particle Dynamics Simulations for Soft Matter Systems},
 journal = {Comput.\ Mater.\ Sci.},
 year =    2015,
 doi =     {10.1016/j.commatsci.2014.10.068},
 volume =  100,
 pages =   {173--180}
}

@Article{Trung17,
 author = {T. D. Nguyen},
 title = {{GPU}-Accelerated {T}ersoff Potentials for Massively Parallel
    Molecular Dynamics Simulations},
 journal = {Comput.\ Phys.\ Commun.},
 year =    2017,
 doi =     {10.1016/j.cpc.2016.10.020},
 volume =  212,
 pages =   {113--122}
}

@inproceedings{Nikolskiy19,
 author = {V. Nikolskiy and V. Stegailov},
 title = {{GPU} Acceleration of Four-Site Water Models in {LAMMPS}},
 booktitle = {Proceedings of the International Conference on Parallel
    Computing (ParCo 2019), Prague, Czech Republic},
 doi =     {10.3233/APC200086},
 year =    2019
}

- USER-DEEPMD package:

@article{Wang_ComputPhysCommun_2018_v228_p178,
  author = {Wang, Han and Zhang, Linfeng and Han, Jiequn and E, Weinan},
  doi = {10.1016/j.cpc.2018.03.016},
  url = {https://doi.org/10.1016/j.cpc.2018.03.016},
  year = 2018,
  month = {jul},
  publisher = {Elsevier {BV}},
  volume = 228,
  journal = {Comput. Phys. Commun.},
  title = {{DeePMD-kit: A deep learning package for many-body potential energy representation and molecular dynamics}},
  pages = {178--184}
}
@misc{Zeng_JChemPhys_2023_v159_p054801,
  title  = {{DeePMD-kit v2: A software package for deep potential models}},
  author =   {Jinzhe Zeng and Duo Zhang and Denghui Lu and Pinghui Mo and Zeyu Li
         and Yixiao Chen and Mari{\'a}n Rynik and Li'ang Huang and Ziyao Li and 
         Shaochen Shi and Yingze Wang and Haotian Ye and Ping Tuo and Jiabin
         Yang and Ye Ding and Yifan Li and Davide Tisi and Qiyu Zeng and Han 
         Bao and Yu Xia and Jiameng Huang and Koki Muraoka and Yibo Wang and 
         Junhan Chang and Fengbo Yuan and Sigbj{\o}rn L{\o}land Bore and Chun
         Cai and Yinnian Lin and Bo Wang and Jiayan Xu and Jia-Xin Zhu and 
         Chenxing Luo and Yuzhi Zhang and Rhys E A Goodall and Wenshuo Liang
         and Anurag Kumar Singh and Sikai Yao and Jingchao Zhang and Renata
         Wentzcovitch and Jiequn Han and Jie Liu and Weile Jia and Darrin M
         York and Weinan E and Roberto Car and Linfeng Zhang and Han Wang},
  journal =  {J. Chem. Phys.},
  volume =   159,
  issue =    5,  
  year =    2023,
  pages  =   054801,
  doi =      {10.1063/5.0155600},
}

CITE-CITE-CITE-CITE-CITE-CITE-CITE-CITE-CITE-CITE-CITE-CITE-CITE

Generated 0 of 10 mixed pair_coeff terms from geometric mixing rule
Neighbor list info ...
  update: every = 1 steps, delay = 0 steps, check = yes
  max neighbors/atom: 2000, page size: 100000
  master list distance cutoff = 8
  ghost atom cutoff = 8
  binsize = 4, bins = 3 4 8
  1 neighbor lists, perpetual/occasional/extra = 1 0 0
  (1) pair deepmd, perpetual
      attributes: full, newton on
      pair build: full/bin/atomonly
      stencil: full/bin/3d
      bin: standard
colvars: Creating proxy instance
colvars: ----------------------------------------------------------------------
colvars: Initializing the collective variables module, version 2023-05-01.
colvars: Please cite Fiorin et al, Mol Phys 2013:
colvars:   https://doi.org/10.1080/00268976.2013.813594
colvars: as well as all other papers listed below for individual features used.
colvars: This version was built with the C++11 standard or higher.
colvars: Using LAMMPS interface, version "2023-04-12".
colvars: ----------------------------------------------------------------------
colvars: Reading new configuration from file "pmf.in":
colvars: # units = "" [default]
colvars: # smp = on [default]
colvars: # colvarsTrajFrequency = 100 [default]
colvars: # colvarsRestartFrequency = 0 [default]
colvars: # scriptedColvarForces = off [default]
colvars: # scriptingAfterBiases = off [default]
colvars: ----------------------------------------------------------------------
colvars:   Initializing a new collective variable.
colvars:   # name = "cn_fe_fe"
colvars:   Initializing a new "coordNum" component.
colvars:     # name = "" [default]
colvars:     # componentCoeff = 1 [default]
colvars:     # componentExp = 1 [default]
colvars:     # period = 0 [default]
colvars:     # wrapAround = 0 [default]
colvars:     # forceNoPBC = off [default]
colvars:     # scalable = on [default]
colvars:       Initializing atom group "group1".
colvars:       # name = "" [default]
colvars:       # centerToOrigin = off [default]
colvars:       # centerToReference = off [default]
colvars:       # rotateToReference = off [default]
colvars:       # atomsOfGroup = "" [default]
colvars:       # indexGroup = "" [default]
colvars:       # psfSegID =  [default]
colvars:       # atomsFile = "" [default]
colvars:       # dummyAtom = ( 0 , 0 , 0 ) [default]
colvars:       # enableFitGradients = on [default]
colvars:       # printAtomIDs = off [default]
colvars:       Atom group "group1" defined with 1 atoms requested.
colvars:       Initializing atom group "group2".
colvars:       # name = "" [default]
colvars:       # centerToOrigin = off [default]
colvars:       # centerToReference = off [default]
colvars:       # rotateToReference = off [default]
colvars:       # atomsOfGroup = "" [default]
colvars:       # indexGroup = "" [default]
colvars:       # psfSegID =  [default]
colvars:       # atomsFile = "" [default]
colvars:       # dummyAtom = ( 0 , 0 , 0 ) [default]
colvars:       # enableFitGradients = on [default]
colvars:       # printAtomIDs = off [default]
colvars:       Atom group "group2" defined with 167 atoms requested.
colvars:     # cutoff = 2.5
colvars:     # cutoff3 = ( 4 , 4 , 4 ) [default]
colvars:     # expNumer = 6 [default]
colvars:     # expDenom = 12 [default]
colvars:     # group2CenterOnly = off [default]
colvars:     # tolerance = 0 [default]
colvars:   All components initialized.
colvars:   # timeStepFactor = 1 [default]
colvars:   # width = 0.2
colvars:   # lowerBoundary = 0
colvars:   # upperBoundary = 6
colvars:   # hardLowerBoundary = off [default]
colvars:   # hardUpperBoundary = off [default]
colvars:   # expandBoundaries = off [default]
colvars:   # extendedLagrangian = off [default]
colvars:   # outputValue = on [default]
colvars:   # outputVelocity = off [default]
colvars:   # outputTotalForce = off [default]
colvars:   # outputAppliedForce = off [default]
colvars:   # subtractAppliedForce = off [default]
colvars:   # runAve = off [default]
colvars:   # corrFunc = off [default]
colvars: ----------------------------------------------------------------------
colvars:   Initializing a new collective variable.
colvars:   # name = "cn_fe_o"
colvars:   Initializing a new "coordNum" component.
colvars:     # name = "" [default]
colvars:     # componentCoeff = 1 [default]
colvars:     # componentExp = 1 [default]
colvars:     # period = 0 [default]
colvars:     # wrapAround = 0 [default]
colvars:     # forceNoPBC = off [default]
colvars:     # scalable = on [default]
colvars:       Initializing atom group "group1".
colvars:       # name = "" [default]
colvars:       # centerToOrigin = off [default]
colvars:       # centerToReference = off [default]
colvars:       # rotateToReference = off [default]
colvars:       # atomsOfGroup = "" [default]
colvars:       # indexGroup = "" [default]
colvars:       # psfSegID =  [default]
colvars:       # atomsFile = "" [default]
colvars:       # dummyAtom = ( 0 , 0 , 0 ) [default]
colvars:       # enableFitGradients = on [default]
colvars:       # printAtomIDs = off [default]
colvars:       Atom group "group1" defined with 1 atoms requested.
colvars:       Initializing atom group "group2".
colvars:       # name = "" [default]
colvars:       # centerToOrigin = off [default]
colvars:       # centerToReference = off [default]
colvars:       # rotateToReference = off [default]
colvars:       # atomsOfGroup = "" [default]
colvars:       # indexGroup = "" [default]
colvars:       # psfSegID =  [default]
colvars:       # atomsFile = "" [default]
colvars:       # dummyAtom = ( 0 , 0 , 0 ) [default]
colvars:       # enableFitGradients = on [default]
colvars:       # printAtomIDs = off [default]
colvars:       Atom group "group2" defined with 56 atoms requested.
colvars:     # cutoff = 3
colvars:     # cutoff3 = ( 4 , 4 , 4 ) [default]
colvars:     # expNumer = 6 [default]
colvars:     # expDenom = 12 [default]
colvars:     # group2CenterOnly = off [default]
colvars:     # tolerance = 0 [default]
colvars:   All components initialized.
colvars:   # timeStepFactor = 1 [default]
colvars:   # width = 0.1
colvars:   # lowerBoundary = 0.5
colvars:   # upperBoundary = 7
colvars:   # hardLowerBoundary = off [default]
colvars:   # hardUpperBoundary = off [default]
colvars:   # expandBoundaries = off [default]
colvars:   # extendedLagrangian = off [default]
colvars:   # outputValue = on [default]
colvars:   # outputVelocity = off [default]
colvars:   # outputTotalForce = off [default]
colvars:   # outputAppliedForce = off [default]
colvars:   # subtractAppliedForce = off [default]
colvars:   # runAve = off [default]
colvars:   # corrFunc = off [default]
colvars: ----------------------------------------------------------------------
colvars: Collective variables initialized, 2 in total.
colvars: ----------------------------------------------------------------------
colvars:   Initializing a new "metadynamics" instance.
colvars:   # name = "meta2d"
colvars:   # colvars = { cn_fe_fe, cn_fe_o }
colvars:   # stepZeroData = off [default]
colvars:   # outputEnergy = off [default]
colvars:   # outputFreq = 0 [default]
colvars:   # timeStepFactor = 1 [default]
colvars:   # writeTISamples = off [default]
colvars:   # writeTIPMF = off [default]
colvars:   # hillWeight = 0.05
colvars:   # newHillFrequency = 300
colvars:   # gaussianSigmas =  [default]
colvars:   # hillWidth = 0.1
colvars:   Half-widths of the Gaussian hills (sigma's):
colvars:   cn_fe_fe: 0.01
colvars:   cn_fe_o: 0.005
colvars:   # multipleReplicas = off [default]
colvars:   # useGrids = on [default]
colvars:   Warning: gaussianSigmas is too narrow for the grid spacing along cn_fe_fe.
colvars:   Warning: gaussianSigmas is too narrow for the grid spacing along cn_fe_o.
colvars:   # gridsUpdateFrequency = 300 [default]
colvars:   # rebinGrids = off [default]
colvars:   # writeFreeEnergyFile = on [default]
colvars:   # keepHills = off [default]
colvars:   # keepFreeEnergyFiles = off [default]
colvars:   # writeHillsTrajectory = off [default]
colvars:   # wellTempered = off [default]
colvars:   # biasTemperature = 800
colvars:   # ebMeta = off [default]
colvars: ----------------------------------------------------------------------
colvars: Collective variables biases initialized, 1 in total.
colvars: ----------------------------------------------------------------------
colvars: Collective variables module (re)initialized.
colvars: ----------------------------------------------------------------------
colvars: Re-initialized atom group for variable "cn_fe_fe":0/0. 1 atoms: total mass = 55.845, total charge = 1.28902e-320.
colvars: Re-initialized atom group for variable "cn_fe_fe":0/1. 167 atoms: total mass = 9322.27, total charge = 2.54585e+253.
colvars: Re-initialized atom group for variable "cn_fe_o":0/0. 1 atoms: total mass = 55.845, total charge = 1.28902e-320.
colvars: Re-initialized atom group for variable "cn_fe_o":0/1. 56 atoms: total mass = 895.944, total charge = 2.58741e+161.
colvars: The restart output state file will be "rest.colvars.state".
colvars: The final output state file will be "out.colvars.state".
Per MPI rank memory allocation (min/avg/max) = 3.139 | 3.164 | 3.181 Mbytes
   Step          Temp         c_mTemp         PotEng         KinEng         TotEng         Press     
         0   150.40208      298.15        -2337.9556      6.5516151     -2331.404      -12354.234    
        50   174.75435      346.42479     -2339.0148      7.6124162     -2331.4023     -10587.611    
       100   178.86315      354.56989     -2339.1999      7.7913983     -2331.4085     -13021.275    
       150   166.15314      329.37416     -2338.6562      7.2377417     -2331.4184     -12228.65     
       200   152.15777      301.63041     -2338.0477      6.6280943     -2331.4196     -7723.5776    
       250   149.77035      296.89769     -2337.9499      6.5240964     -2331.4258     -13627.48     
       300   168.02346      333.0818      -2338.7575      7.3192143     -2331.4383     -10070.995    
       350   162.63924      322.40838     -2338.3531      7.0846742     -2331.2684     -13979.905    
       400   158.80438      314.80633     -2338.1937      6.9176249     -2331.2761     -13914.894    
       450   171.96407      340.89348     -2338.7741      7.4908699     -2331.2832     -12588.553    
       500   165.3966       327.87444     -2338.4821      7.2047867     -2331.2773     -13600.017    
       550   154.8517       306.97073     -2338.0302      6.7454437     -2331.2847     -10787.296    
       600   158.76337      314.72502     -2338.2172      6.9158384     -2331.3013     -11422.844    
       650   169.27609      335.56495     -2338.686       7.3737797     -2331.3122     -12816.689    
       700   166.65332      330.3657      -2338.5872      7.25953       -2331.3277     -9940.5567    
       750   167.33264      331.71234     -2338.624       7.2891215     -2331.3349     -15283.471    
       800   159.37829      315.94402     -2338.2964      6.9426249     -2331.3537     -13879.536    
       850   161.98022      321.10197     -2338.4298      7.0559667     -2331.3739     -11076.85     
       900   158.15479      313.51862     -2338.2739      6.8893285     -2331.3846     -11556.354    
       950   150.77379      298.88686     -2337.9746      6.5678069     -2331.4067     -13825.6      
      1000   154.82414      306.91608     -2338.1664      6.7442429     -2331.4221     -14854.75     
      1050   155.39932      308.0563      -2338.2062      6.7692984     -2331.4369     -16607.72     
      1100   148.05686      293.50096     -2337.9019      6.449456      -2331.4525     -10933.245    
      1150   155.71317      308.67847     -2338.2459      6.78297       -2331.4629     -12290.954    
      1200   161.01121      319.18106     -2338.4872      7.0137562     -2331.4734     -12869        
      1250   153.26845      303.83217     -2338.1591      6.6764763     -2331.4826     -13297.529    
      1300   141.0512       279.61325     -2337.6456      6.1442844     -2331.5013     -12415.597    
      1350   159.89908      316.9764      -2338.4909      6.9653107     -2331.5256     -15098.6      
      1400   156.79863      310.83022     -2338.3723      6.830253      -2331.5421     -13992.501    
      1450   154.08946      305.45969     -2338.2675      6.7122399     -2331.5553     -11209.084    
      1500   140.84223      279.19901     -2337.7152      6.1351818     -2331.58       -13344.812    
      1550   152.55931      302.42639     -2338.244       6.6455854     -2331.5984     -10740.455    
      1600   150.38397      298.1141      -2338.1735      6.5508263     -2331.6227     -10370.822    
      1650   160.31707      317.80502     -2338.6326      6.9835189     -2331.6491     -13800.337    
      1700   155.00018      307.26507     -2338.4305      6.7519116     -2331.6786     -11201.154    
      1750   160.92304      319.00626     -2338.7131      7.0099152     -2331.7032     -11845.824    
      1800   159.38426      315.95585     -2338.6699      6.9428848     -2331.727      -11477.231    
      1850   144.21032      285.87575     -2337.708       6.2818979     -2331.4261     -9407.6973    
      1900   133.9131       265.46303     -2337.2801      5.8333442     -2331.4468     -10663.112    
      1950   146.92106      291.24939     -2337.8652      6.3999795     -2331.4652     -13227.509    
      2000   162.50482      322.14191     -2338.5677      7.0788188     -2331.4888     -14015.217    
      2050   183.38599      363.53575     -2339.5008      7.9884163     -2331.5124     -10856.793    
      2100   167.63728      332.31626     -2338.8345      7.3023922     -2331.5321     -11591.572    
      2150   187.88992      372.46413     -2339.7466      8.1846104     -2331.562      -11650.596    
      2200   188.85479      374.37685     -2339.8249      8.226641      -2331.5983     -10731.585    
      2250   179.41007      355.65407     -2339.4413      7.8152225     -2331.6261     -15080.12     
      2300   176.88597      350.65043     -2339.3716      7.7052714     -2331.6663     -11783.641    
      2350   185.70462      368.13209     -2339.8036      8.0894173     -2331.7142     -9347.084     
      2400   173.23272      343.4084      -2339.2949      7.5461334     -2331.7487     -13925.357    
      2450   155.83428      308.91855     -2338.5672      6.7882455     -2331.7789     -11861.395    
      2500   170.91703      338.81788     -2339.2591      7.4452603     -2331.8138     -10239.875    
      2550   173.6287       344.19337     -2339.4163      7.5633824     -2331.8529     -12090.332    
      2600   166.79318      330.64295     -2339.1511      7.2656224     -2331.8855     -15102.719    
      2650   174.95593      346.82439     -2339.5497      7.6211971     -2331.9285     -11318.557    
      2700   177.87583      352.61267     -2339.7138      7.74839       -2331.9654     -12186.347    
      2750   165.03843      327.16441     -2339.1924      7.1891842     -2332.0032     -10541.756    
      2800   172.11568      341.19402     -2339.5406      7.497474      -2332.0431     -12080.316    
      2850   181.12453      359.05275     -2339.9779      7.8899057     -2332.088      -8062.6951    
      2900   162.11583      321.37079     -2339.1837      7.0618738     -2332.1218     -12798.9      
      2950   173.48173      343.90203     -2339.7158      7.5569804     -2332.1588     -10175.761    
      3000   160.48494      318.1378      -2339.1938      6.9908314     -2332.203      -12026.009    
      3050   162.08687      321.31339     -2339.3008      7.0606126     -2332.2402     -11475.048    
      3100   168.84569      334.71175     -2339.6308      7.3550311     -2332.2758     -13138.231    
      3150   173.79381      344.52067     -2339.8738      7.5705745     -2332.3032     -12534.67     
      3200   173.73547      344.40502     -2339.91        7.5680332     -2332.342      -13541.026    
      3250   161.85189      320.84758     -2339.4168      7.0503767     -2332.3664     -12942.509    
      3300   177.27198      351.41563     -2340.1132      7.7220859     -2332.3911     -9257.7579    
      3350   177.53145      351.92999     -2340.1563      7.7333887     -2332.4229     -14195.169    
      3400   160.29766      317.76655     -2339.4304      6.9826735     -2332.4477     -14756.211    
      3450   154.57143      306.41513     -2339.2084      6.7332349     -2332.4751     -10832.95     
      3500   165.54324      328.16513     -2339.7145      7.2111743     -2332.5033     -12281.69     
      3550   163.96948      325.04538     -2339.6741      7.1426203     -2332.5315     -13589.1      
      3600   153.80979      304.90528     -2339.2496      6.7000571     -2332.5495     -13397.873    
      3650   159.66428      316.51095     -2339.5324      6.9550827     -2332.5773     -11644.473    
      3700   156.19187      309.62741     -2339.3978      6.8038222     -2332.594      -13487.711    
      3750   153.685        304.65791     -2339.3084      6.6946214     -2332.6138     -11072.759    
      3800   156.44327      310.12577     -2339.4502      6.8147734     -2332.6354     -10741.919    
      3850   161.45668      320.06412     -2339.6858      7.033161      -2332.6527     -12527.705    
      3900   165.46786      328.01571     -2339.8824      7.2078908     -2332.6745     -11723.715    
      3950   160.7635       318.68999     -2339.6944      7.0029655     -2332.6914     -14247.179    
      4000   166.81195      330.68016     -2339.976       7.2664401     -2332.7095     -11959.93     
      4050   165.25106      327.58593     -2339.9293      7.1984467     -2332.7308     -15096.352    
      4100   168.45173      333.93079     -2340.0866      7.3378702     -2332.7488     -11415.253    
      4150   167.06513      331.18205     -2340.0447      7.2774688     -2332.7672     -10956.81     
      4200   171.79227      340.55291     -2340.2757      7.4833861     -2332.7924     -14895.054    
      4250   161.03714      319.23245     -2339.825       7.0148856     -2332.8101     -12474.008    
      4300   172.39425      341.74625     -2340.3283      7.5096089     -2332.8187     -14180.12     
      4350   154.26745      305.81253     -2339.549       6.7199933     -2332.829      -15069.993    
      4400   158.25717      313.72157     -2339.7367      6.8937883     -2332.8429     -11925.211    
      4450   160.87693      318.91486     -2339.8757      7.0079067     -2332.8678     -9687.4823    
      4500   166.006        329.08248     -2340.111       7.2313324     -2332.8797     -18906.557    
      4550   166.01713      329.10455     -2340.1299      7.2318173     -2332.898      -14874.574    
      4600   185.5548       367.8351      -2341.0094      8.0828912     -2332.9265     -10460.493    
      4650   160.64495      318.45499     -2339.9373      6.9978015     -2332.9395     -10875.285    
      4700   167.58946      332.22147     -2340.2616      7.3003091     -2332.9613     -11149.29     
      4750   153.52041      304.33163     -2339.6694      6.6874516     -2332.9819     -11909.786    
      4800   172.60139      342.15688     -2340.5249      7.5186322     -2333.0062     -13982.756    
      4850   153.69848      304.68464     -2339.7184      6.6952087     -2333.0232     -9076.2197    
      4900   155.01889      307.30215     -2339.8027      6.7527266     -2333.05       -10467.481    
      4950   181.2765       359.354       -2340.9753      7.8965255     -2333.0788     -10063.824    
      5000   163.21987      323.55939     -2340.2046      7.1099667     -2333.0947     -12736.647    
      5050   170.27022      337.53566     -2340.5384      7.4170845     -2333.1213     -8879.0304    
      5100   180.64435      358.10087     -2341.0164      7.8689889     -2333.1474     -10429.096    
      5150   160.86654      318.89426     -2340.1758      7.0074542     -2333.1684     -14801.295    
      5200   171.63321      340.23759     -2340.6727      7.4764573     -2333.1963     -7375.072     
      5250   180.79784      358.40514     -2341.1047      7.875675      -2333.2291     -12361.555    
      5300   153.07735      303.45334     -2339.9124      6.6681518     -2333.2442     -13265.128    
      5350   171.00315      338.98859     -2340.7223      7.4490115     -2333.2732     -11896.574    
      5400   167.88047      332.79835     -2340.6115      7.3129856     -2333.2985     -13117.905    
      5450   159.5092       316.20354     -2340.2714      6.9483275     -2333.3231     -13362.142    
      5500   167.95369      332.94349     -2340.679       7.3161751     -2333.3628     -10657.012    
      5550   167.83378      332.70579     -2340.7014      7.3109517     -2333.3904     -13584.624    
      5600   155.34239      307.94345     -2340.1847      6.7668184     -2333.4179     -15212.619    
      5650   163.31544      323.74884     -2340.5536      7.1141297     -2333.4395     -11727.007    
      5700   170.8695       338.72367     -2340.9169      7.4431899     -2333.4737     -11073.657    
      5750   176.39887      349.68482     -2341.2058      7.6840527     -2333.5217     -13541.773    
      5800   175.33277      347.57144     -2341.1838      7.6376129     -2333.5462     -12437.397    
      5850   182.48786      361.75535     -2341.5317      7.9492934     -2333.5824     -9947.3415    
      5900   174.64268      346.20343     -2341.2282      7.6075519     -2333.6207     -13985.194    
      5950   173.01949      342.98569     -2341.1926      7.5368446     -2333.6558     -10398.61     
      6000   153.49537      304.28199     -2340.3591      6.6863609     -2333.6727     -11080.398    
      6050   180.80441      358.41815     -2341.5882      7.875961      -2333.7122     -11849.377    
      6100   153.96862      305.22014     -2340.4485      6.7069759     -2333.7416     -9968.026     
      6150   164.67436      326.4427      -2340.9457      7.1733252     -2333.7724     -11444.251    
      6200   157.91171      313.03675     -2340.6844      6.8787398     -2333.8056     -11294.029    
      6250   146.47718      290.36947     -2340.2045      6.380644      -2333.8239     -12586.382    
      6300   180.01318      356.84965     -2341.7076      7.8414944     -2333.8661     -8938.184     
      6350   171.87156      340.71009     -2341.3792      7.4868401     -2333.8923     -12172.658    
      6400   176.83449      350.54837     -2341.6343      7.7030285     -2333.9313     -11556.112    
      6450   161.55993      320.2688      -2341.0109      7.0376587     -2333.9732     -9168.1471    
      6500   164.36101      325.82154     -2341.1592      7.1596757     -2333.9995     -12527.987    
      6550   163.17508      323.47059     -2341.128       7.1080155     -2334.0199     -11579.185    
      6600   171.61474      340.20099     -2341.5352      7.475653      -2334.0596     -10940.045    
      6650   157.97604      313.16426     -2340.9727      6.8815419     -2334.0912     -13537.886    
      6700   186.11153      368.93874     -2342.2373      8.1071428     -2334.1301     -10754.127    
      6750   163.58759      324.28835     -2341.2813      7.125985      -2334.1553     -11115.535    
      6800   157.07672      311.3815      -2341.0317      6.842367      -2334.1894     -12368.284    
      6850   146.69553      290.80231     -2340.6131      6.3901553     -2334.2229     -12420.203    
      6900   153.31304      303.92055     -2340.9233      6.6784185     -2334.2449     -11092.294    
      6950   165.81607      328.70598     -2341.5032      7.2230591     -2334.2801     -12862.425    
      7000   186.86703      370.43641     -2342.4593      8.1400529     -2334.3192     -11203.515    
      7050   177.04195      350.95964     -2342.0619      7.7120659     -2334.3499     -13370.214    
      7100   178.52008      353.8898      -2342.1605      7.7764539     -2334.3841     -11210.441    
      7150   167.42593      331.89729     -2341.707       7.2931857     -2334.4138     -10518.29     
      7200   172.15715      341.27624     -2341.9477      7.4992807     -2334.4484     -11853.022    
      7250   182.88597      362.54454     -2342.454       7.9666351     -2334.4874     -11157.638    
      7300   172.53144      342.01821     -2342.0243      7.515585      -2334.5087     -11817.679    
      7350   159.60371      316.39087     -2341.4995      6.9524441     -2334.5471     -8100.1961    
      7400   165.06443      327.21596     -2341.7763      7.190317      -2334.586      -10511.76     
      7450   170.81688      338.61935     -2342.0646      7.4408978     -2334.6237     -10162.95     
      7500   174.97131      346.8549      -2342.2826      7.6218675     -2334.6608     -11903.057    
      7550   153.01972      303.33908     -2341.3603      6.6656412     -2334.6947     -13514.717    
      7600   195.57184      387.6924      -2343.2612      8.51924       -2334.7419     -11724.199    
      7650   167.42642      331.89826     -2342.0745      7.293207      -2334.7813     -10342.765    
      7700   173.45113      343.84135     -2342.3769      7.5556471     -2334.8213     -12826.176    
      7750   167.98849      333.01247     -2342.2055      7.3176909     -2334.8878     -11617.931    
      7800   164.8302       326.75163     -2342.1087      7.1801136     -2334.9286     -13012.644    
      7850   162.08105      321.30184     -2342.0162      7.0603588     -2334.9558     -14744.637    
      7900   170.31932      337.63301     -2342.4056      7.4192236     -2334.9864     -11866.326    
      7950   169.64156      336.28944     -2342.4063      7.3896997     -2335.0166     -9065.0081    
      8000   172.63093      342.21542     -2342.5771      7.5199186     -2335.0571     -14320.761    
      8050   183.36742      363.49894     -2343.0807      7.9876073     -2335.0931     -10428.541    
      8100   160.97458      319.10842     -2342.1349      7.0121602     -2335.1228     -12334.428    
      8150   164.19832      325.49903     -2342.316       7.1525887     -2335.1634     -11438.751    
      8200   166.26698      329.59984     -2342.4459      7.2427009     -2335.2032     -12619.599    
      8250   165.20782      327.5002      -2342.4306      7.196563      -2335.234      -15351.841    
      8300   163.37252      323.862       -2342.3994      7.1166163     -2335.2828     -16651.234    
      8350   153.48274      304.25696     -2342.0127      6.6858108     -2335.3269     -13554.467    
      8400   151.75315      300.8283      -2341.9655      6.6104686     -2335.355      -13911.242    
      8450   170.71236      338.41215     -2342.8139      7.4363446     -2335.3775     -12960.139    
      8500   156.92597      311.08266     -2342.2451      6.8358002     -2335.4093     -14495.723    
      8550   170.93095      338.84548     -2342.8867      7.4458666     -2335.4409     -12574.158    
      8600   167.41403      331.8737      -2342.7649      7.2926672     -2335.4723     -15650.289    
      8650   167.1462       331.34277     -2342.7919      7.2810004     -2335.5109     -12020.008    
      8700   175.38698      347.6789      -2343.1834      7.6399743     -2335.5434     -13401.673    
      8750   180.6058       358.02443     -2343.4477      7.8673093     -2335.5804     -11170.548    
      8800   183.84232      364.44036     -2343.6195      8.0082944     -2335.6113     -12652.825    
      8850   169.90495      336.81158     -2343.0514      7.4011732     -2335.6502     -12339.944    
      8900   162.48751      322.10759     -2342.7615      7.0780645     -2335.6835     -12982.584    
      8950   162.19993      321.53752     -2342.7827      7.0655376     -2335.7172     -12615.227    
      9000   153.01235      303.32449     -2342.4157      6.6653204     -2335.7503     -13234.628    
      9050   166.48795      330.03787     -2343.0525      7.2523264     -2335.8001     -10179.708    
      9100   166.93471      330.92351     -2343.1007      7.2717875     -2335.8289     -8261.5811    
      9150   161.3443       319.84135     -2342.8915      7.0282656     -2335.8632     -11170.646    
      9200   149.10906      295.58679     -2342.3895      6.4952905     -2335.8942     -9356.8265    
      9250   154.91565      307.0975      -2342.6779      6.7482295     -2335.9297     -12494.334    
      9300   164.39911      325.89707     -2343.1253      7.1613354     -2335.964      -11505.203    
      9350   159.70916      316.59992     -2342.9501      6.9570379     -2335.9931     -9887.8164    
      9400   169.20809      335.43015     -2343.3931      7.3708174     -2336.0223     -10990.379    
      9450   166.04527      329.16034     -2343.2868      7.2330432     -2336.0538     -13013.303    
      9500   162.63162      322.39326     -2343.1718      7.084342      -2336.0875     -11380.586    
      9550   161.37326      319.89876     -2343.1515      7.0295273     -2336.122      -7543.0248    
      9600   164.24331      325.5882      -2343.3049      7.1545484     -2336.1503     -10902.235    
      9650   166.92559      330.90543     -2343.242       7.2713903     -2335.9706     -9957.6121    
      9700   162.68188      322.49289     -2343.0969      7.0865313     -2336.0103     -9334.8458    
      9750   162.87315      322.87208     -2343.1366      7.0948635     -2336.0417     -13285.486    
      9800   152.88366      303.06938     -2342.7306      6.6597147     -2336.0709     -10333.398    
      9850   160.84993      318.86134     -2343.0932      7.0067307     -2336.0865     -11925.475    
      9900   157.03009      311.28906     -2342.9746      6.8403358     -2336.1342     -7784.2707    
      9950   145.28614      288.00841     -2342.4929      6.3287614     -2336.1641     -11379.497    
     10000   163.32184      323.76153     -2343.3073      7.1144087     -2336.1929     -11434.69     
     10050   167.61816      332.27836     -2343.4211      7.3015593     -2336.1196     -9343.7457    
     10100   155.9371       309.12236     -2342.9499      6.7927242     -2336.1572     -11521.049    
     10150   147.94989      293.2889      -2342.6299      6.4447961     -2336.1851     -7306.9621    
     10200   164.72944      326.5519      -2343.3954      7.1757248     -2336.2197     -12678.3      
     10250   171.08912      339.15902     -2343.697       7.4527565     -2336.2443     -14745.699    
     10300   160.618        318.40157     -2343.2545      6.9966275     -2336.2579     -11182.288    
     10350   150.22667      297.80229     -2342.9245      6.5439744     -2336.3805     -10230.563    
     10400   154.83247      306.93261     -2343.1441      6.7446061     -2336.3995     -10735.587    
     10450   153.90092      305.08595     -2343.103       6.7040272     -2336.399      -12290.658    
     10500   162.74596      322.61993     -2343.5238      7.0893228     -2336.4345     -12909.866    
     10550   157.18767      311.60144     -2343.3062      6.8472        -2336.459      -11347.029    
     10600   161.17781      319.51131     -2343.4975      7.0210133     -2336.4765     -11209.897    
     10650   152.28766      301.88789     -2343.133       6.6337522     -2336.4993     -12254.667    
     10700   157.68763      312.59254     -2343.4726      6.8689786     -2336.6036     -9186.6963    
     10750   156.30108      309.84391     -2343.3571      6.8085797     -2336.5485     -12533.793    
     10800   158.00177      313.21528     -2343.4615      6.8826628     -2336.5788     -9534.9018    
     10850   159.60485      316.39313     -2343.5552      6.9524938     -2336.6027     -12121.197    
     10900   152.86999      303.04227     -2343.2744      6.6591188     -2336.6153     -12371.954    
     10950   165.82884      328.73128     -2343.8771      7.2236151     -2336.6535     -10602.611    
     11000   144.22328      285.90144     -2342.9486      6.2824624     -2336.6661     -11754.18     
     11050   153.10498      303.50811     -2343.3632      6.6693554     -2336.6938     -12755.055    
     11100   155.07645      307.41626     -2343.4714      6.755234      -2336.7161     -13193.621    
     11150   144.29583      286.04526     -2343.0118      6.2856229     -2336.7262     -14086.334    
     11200   164.07386      325.25231     -2343.9009      7.1471673     -2336.7537     -11285.619    
     11250   161.19663      319.54862     -2343.7979      7.0218331     -2336.776      -10026.742    
     11300   161.89713      320.93725     -2343.8596      7.0523473     -2336.8073     -9389.4119    
     11350   152.03369      301.38442     -2343.4828      6.622689      -2336.8601     -8547.4099    
     11400   155.52866      308.3127      -2343.6628      6.7749325     -2336.8878     -9346.1197    
     11450   160.50002      318.16768     -2343.9003      6.9914881     -2336.9088     -10877.903    
     11500   160.84712      318.85576     -2343.9391      7.0066081     -2336.9325     -12087.428    
     11550   154.4311       306.13694     -2343.6882      6.7271218     -2336.9611     -10431.131    
     11600   160.80824      318.77869     -2343.9893      7.0049145     -2336.9844     -9569.3266    
     11650   158.81603      314.82943     -2343.9259      6.9181326     -2337.0078     -11619.426    
     11700   163.91331      324.93403     -2344.1742      7.1401734     -2337.034      -12827.529    
     11750   151.57699      300.47909     -2343.6576      6.6027951     -2337.0548     -14154.752    
     11800   158.79128      314.78036     -2344.0019      6.9170543     -2337.0849     -9405.8695    
     11850   145.34959      288.13418     -2343.4407      6.3315253     -2337.1091     -13899.132    
     11900   169.19152      335.3973      -2344.5062      7.3700957     -2337.1361     -12024.913    
     11950   156.15878      309.56182     -2343.9688      6.8023811     -2337.1664     -9752.6138    
     12000   171.43245      339.83962     -2344.6573      7.4677121     -2337.1896     -11140.077    
     12050   159.59967      316.38288     -2344.1644      6.9522685     -2337.2122     -6483.3257    
     12100   159.86611      316.91105     -2344.2011      6.9638746     -2337.2372     -9766.6666    
     12150   144.8437       287.13133     -2343.5757      6.3094885     -2337.2662     -12344.908    
     12200   158.51382      314.23034     -2344.1931      6.9049681     -2337.2882     -8452.4972    
     12250   170.20098      337.39842     -2344.7337      7.4140687     -2337.3196     -5952.2984    
     12300   155.27831      307.81641     -2344.1068      6.7640269     -2337.3427     -15047.575    
     12350   156.58979      310.41622     -2344.1824      6.8211558     -2337.3613     -12804.975    
     12400   151.66925      300.66198     -2343.7168      6.6068139     -2337.11       -8564.6393    
     12450   156.4658       310.17044     -2343.9563      6.8157549     -2337.1405     -12028.415    
     12500   163.84276      324.79417     -2344.3128      7.1371001     -2337.1757     -11062.068    
     12550   157.12557      311.47833     -2344.0455      6.8444948     -2337.201      -9278.221     
     12600   139.69393      276.92267     -2343.2998      6.0851609     -2337.2147     -12474.512    
     12650   161.34206      319.83691     -2344.2653      7.0281682     -2337.2371     -9161.8062    
     12700   147.37544      292.15014     -2343.6836      6.4197727     -2337.2638     -9143.1979    
     12750   154.44261      306.15975     -2344.0178      6.7276232     -2337.2902     -10628.899    
     12800   141.83404      281.16513     -2343.4887      6.1783858     -2337.3103     -11451.218    
     12850   144.52556      286.50066     -2343.6314      6.2956299     -2337.3358     -6807.7902    
     12900   152.31324      301.93859     -2343.9943      6.6348665     -2337.3595     -12310.664    
     12950   159.83844      316.8562      -2344.3494      6.9626694     -2337.3867     -10999.213    
     13000   149.38274      296.12932     -2343.9133      6.5072122     -2337.4061     -12212.892    
     13050   147.78562      292.96326     -2343.864       6.4376405     -2337.4264     -9065.0178    
     13100   149.07098      295.5113      -2343.9889      6.4936317     -2337.4952     -10290.604    
     13150   138.30052      274.16044     -2343.5361      6.0244631     -2337.5117     -7856.5407    
     13200   151.51639      300.35897     -2344.1363      6.6001554     -2337.5362     -9837.4796    
     13250   142.28645      282.06196     -2343.748       6.1980928     -2337.5499     -9357.3315    
     13300   149.4006       296.16472     -2344.0845      6.5079901     -2337.5765     -10373.347    
     13350   163.00619      323.13581     -2344.6982      7.1006588     -2337.5975     -11622.737    
     13400   144.03804      285.53424     -2343.8827      6.2743935     -2337.6083     -7737.2797    
     13450   146.2677       289.9542      -2343.9984      6.3715188     -2337.6268     -16196.23     
     13500   141.58582      280.67307     -2343.8213      6.1675732     -2337.6537     -11468.077    
     13550   131.64824      260.97328     -2343.3938      5.7346855     -2337.6592     -12943.516    
     13600   137.97051      273.50625     -2343.6863      6.0100878     -2337.6762     -12399.324    
     13650   143.34838      284.16709     -2343.942       6.2443515     -2337.6976     -11480.246    
     13700   146.13342      289.68802     -2344.078       6.3656696     -2337.7124     -11079.258    
     13750   140.90801      279.3294      -2343.8676      6.138047      -2337.7296     -12720.226    
     13800   146.88048      291.16895     -2344.1381      6.3982118     -2337.7398     -13469.467    
     13850   145.74382      288.91569     -2344.1065      6.3486984     -2337.7578     -14583.049    
     13900   152.36345      302.03813     -2344.4126      6.6370537     -2337.7755     -9962.4013    
     13950   147.68327      292.76037     -2344.2182      6.4331821     -2337.785      -11897.927    
     14000   146.59709      290.60718     -2344.1897      6.3858675     -2337.8038     -14055.909    
     14050   142.93793      283.35343     -2344.0385      6.226472      -2337.812      -10987.441    
     14100   145.6535       288.73664     -2344.1715      6.3447638     -2337.8267     -12218.061    
     14150   138.2532       274.06664     -2343.8611      6.0224019     -2337.8387     -11756.343    
     14200   149.02693      295.42397     -2344.3441      6.4917128     -2337.8524     -8024.6513    
     14250   138.08355      273.73034     -2343.8815      6.0150119     -2337.8665     -12547.628    
     14300   143.26998      284.01168     -2344.1183      6.2409364     -2337.8773     -11712.705    
     14350   153.12524      303.54828     -2344.5473      6.6702381     -2337.8771     -11575.027    
     14400   141.7672       281.03262     -2344.0612      6.1754739     -2337.8858     -12679.934    
     14450   141.3259       280.15781     -2344.0555      6.1562506     -2337.8992     -11380.015    
     14500   144.52737      286.50425     -2344.2087      6.2957087     -2337.913      -10103.727    
     14550   139.86529      277.26236     -2344.0052      6.0926254     -2337.9126     -12419.042    
     14600   147.38051      292.16018     -2344.3459      6.4199935     -2337.9259     -11130.711    
     14650   155.49625      308.24844     -2344.7128      6.7735205     -2337.9393     -11484.048    
     14700   149.38625      296.13626     -2344.4571      6.5073648     -2337.9497     -12823.99     
     14750   149.21313      295.79309     -2344.4298      6.4998239     -2337.93       -9493.0339    
     14800   158.7307       314.66027     -2344.8567      6.9144155     -2337.9423     -10448.688    
     14850   139.31556      276.17262     -2344.0147      6.0686792     -2337.946      -11719.006    
     14900   146.19223      289.80459     -2344.3216      6.3682312     -2337.9534     -10422.453    
     14950   143.93127      285.32257     -2344.2341      6.2697423     -2337.9644     -12915.533    
     15000   156.29643      309.83469     -2344.7854      6.8083771     -2337.9771     -7234.044     
     15050   151.12178      299.57671     -2344.5655      6.582966      -2337.9826     -10217.347    
     15100   159.0411       315.27559     -2344.9283      6.9279367     -2338.0004     -10459.702    
     15150   143.88999      285.24074     -2344.2584      6.2679441     -2337.9905     -9227.1082    
     15200   156.35053      309.94193     -2344.8087      6.8107336     -2337.998      -12355.498    
     15250   164.43922      325.97657     -2345.1746      7.1630824     -2338.0115     -11309.198    
     15300   150.03009      297.41259     -2344.5549      6.5354112     -2338.0195     -7926.2515    
     15350   133.07661      263.80481     -2343.8194      5.7969062     -2338.0225     -10956.837    
     15400   150.16017      297.67045     -2344.5825      6.5410773     -2338.0414     -10489.817    
     15450   143.52963      284.52639     -2344.2977      6.2522468     -2338.0455     -9397.9986    
     15500   155.78621      308.82326     -2344.8416      6.7861517     -2338.0555     -6918.7289    
     15550   152.0009       301.31943     -2344.6883      6.6212609     -2338.067      -9151.4914    
     15600   148.02509      293.43798     -2344.5206      6.448072      -2338.0726     -9200.5543    
     15650   154.92299      307.11205     -2344.8352      6.7485493     -2338.0866     -13714.338    
     15700   143.4051       284.27952     -2344.3366      6.246822      -2338.0897     -9469.0199    
     15750   144.47969      286.40974     -2344.3913      6.2936319     -2338.0977     -10101.272    
     15800   147.3773       292.15382     -2344.523       6.4198536     -2338.1031     -10499.316    
     15850   149.89681      297.14838     -2344.64        6.5296054     -2338.1104     -9602.0072    
     15900   153.34027      303.97453     -2344.8295      6.6796046     -2338.1499     -10732.372    
     15950   148.84812      295.0695      -2344.639       6.4839235     -2338.1551     -9811.143     
     16000   151.19565      299.72313     -2344.7509      6.5861835     -2338.1647     -10794.973    
     16050   154.11549      305.5113      -2344.8826      6.7133739     -2338.1692     -9589.2628    
     16100   142.61241      282.70813     -2344.3886      6.2122919     -2338.1763     -9376.4271    
     16150   146.24125      289.90178     -2344.5542      6.3703668     -2338.1838     -14348.995    
     16200   147.99388      293.37611     -2344.6631      6.4467126     -2338.2164     -10075.728    
     16250   149.91538      297.1852      -2344.7231      6.5304143     -2338.1926     -13264.179    
     16300   150.06049      297.47285     -2344.7446      6.5367353     -2338.2078     -8862.9549    
     16350   139.47718      276.49299     -2344.2714      6.0757191     -2338.1957     -11742.687    
     16400   146.74226      290.89495     -2344.6025      6.392191      -2338.2103     -13313.78     
     16450   152.03471      301.38645     -2344.8388      6.6227337     -2338.216      -13395.811    
     16500   142.55681      282.59791     -2344.4246      6.2098701     -2338.2147     -10310.379    
     16550   146.82682      291.06259     -2344.6191      6.3958747     -2338.2232     -12632.173    
     16600   147.97285      293.33441     -2344.6841      6.4457963     -2338.2383     -12468.184    
     16650   144.33294      286.11883     -2344.5231      6.2872394     -2338.2358     -9655.749     
     16700   153.59755      304.48456     -2344.9305      6.6908122     -2338.2397     -11490.586    
     16750   143.86857      285.19829     -2344.5125      6.2670112     -2338.2455     -10304.783    
     16800   160.42064      318.01032     -2344.997       6.9880302     -2338.009      -10429.689    
     16850   150.68292      298.70672     -2344.5851      6.5638486     -2338.0212     -10490.103    
     16900   146.33874      290.09503     -2344.4093      6.3746135     -2338.0346     -9813.6929    
     16950   142.04364      281.58062     -2344.2288      6.1875158     -2338.0413     -15584.563    
     17000   140.66407      278.84583     -2344.1659      6.1274209     -2338.0385     -12262.657    
     17050   146.4952       290.4052      -2344.4422      6.3814291     -2338.0608     -12364.297    
     17100   143.03929      283.55437     -2344.2971      6.2308874     -2338.0662     -8405.9502    
     17150   149.73286      296.82337     -2344.5695      6.5224634     -2338.047      -10070.272    
     17200   137.62736      272.826       -2344.0409      5.9951399     -2338.0457     -14534.83     
     17250   151.17274      299.67773     -2344.6545      6.5851858     -2338.0693     -9475.0031    
     17300   152.6502       302.60657     -2344.726       6.6495448     -2338.0765     -8500.3224    
     17350   157.98381      313.17967     -2344.8925      6.8818805     -2338.0106     -10083.43     
     17400   146.19942      289.81885     -2344.3865      6.3685446     -2338.0179     -8920.9718    
     17450   155.98679      309.22087     -2344.8252      6.7948888     -2338.0303     -7242.4292    
     17500   151.90141      301.12221     -2344.6521      6.616927      -2338.0352     -6973.6866    
     17550   160.33206      317.83472     -2345.0273      6.9841716     -2338.0432     -7574.9018    
     17600   158.95121      315.09741     -2344.9791      6.9240212     -2338.0551     -5816.8307    
     17650   155.46845      308.19333     -2344.837       6.7723095     -2338.0646     -8150.9679    
     17700   144.94229      287.32678     -2344.3201      6.3137831     -2338.0063     -9299.3987    
     17750   140.6531       278.82408     -2344.1631      6.1269429     -2338.0362     -8530.0689    
     17800   154.04226      305.36612     -2344.8031      6.7101838     -2338.0929     -8835.4346    
     17850   145.74553      288.91908     -2344.4504      6.3487728     -2338.1017     -10206.357    
     17900   138.8361       275.22215     -2344.1581      6.0477934     -2338.1103     -12914.764    
     17950   153.80994      304.90558     -2344.8251      6.7000637     -2338.1251     -9883.3069    
     18000   142.63801      282.75887     -2344.3377      6.213407      -2338.1243     -8291.9426    
     18050   152.43666      302.18327     -2344.7407      6.640243      -2338.1005     -10813.647    
     18100   156.46562      310.17008     -2344.8525      6.8157471     -2338.0367     -9434.784     
     18150   141.4465       280.39689     -2344.2106      6.1615043     -2338.0491     -11046.772    
     18200   149.55605      296.47287     -2344.5821      6.5147614     -2338.0674     -11437.081    
     18250   150.45841      298.26166     -2344.623       6.5540688     -2338.0689     -12156.905    
     18300   152.71703      302.73906     -2344.7275      6.6524562     -2338.0751     -10571.877    
     18350   150.33157      298.01023     -2344.6222      6.5485437     -2338.0736     -12779.105    
     18400   155.12734      307.51714     -2344.8411      6.7574507     -2338.0837     -10821.289    
     18450   140.28271      278.08985     -2344.1997      6.1108088     -2338.0889     -11101.041    
     18500   147.94242      293.2741      -2344.5568      6.4444709     -2338.1123     -13176.934    
     18550   136.67         270.92817     -2344.0962      5.9534366     -2338.1428     -12887.824    
     18600   142.63779      282.75843     -2344.3603      6.2133973     -2338.1469     -11454.486    
     18650   146.53441      290.48292     -2344.56        6.383137      -2338.1768     -12596.596    
     18700   136.46958      270.53088     -2344.1158      5.9447062     -2338.1711     -12671.619    
     18750   133.59944      264.84125     -2344.0003      5.8196812     -2338.1806     -12960.306    
     18800   131.79838      261.2709      -2343.9266      5.7412255     -2338.1854     -12197.124    
     18850   143.84533      285.15221     -2344.4698      6.2659987     -2338.2038     -9748.5246    
     18900   156.3751       309.99064     -2345.0274      6.811804      -2338.2156     -13453.987    
     18950   127.09027      251.93778     -2343.7564      5.5361374     -2338.2203     -14265.258    
     19000   154.45879      306.19184     -2344.959       6.7283282     -2338.2307     -9941.9013    
     19050   144.79016      287.0252      -2344.5456      6.3071562     -2338.2385     -11841.341    
     19100   149.69079      296.73999     -2344.7684      6.5206311     -2338.2478     -12205.985    
     19150   158.89888      314.99367     -2345.1817      6.9217417     -2338.2599     -8720.9308    
     19200   149.88499      297.12495     -2344.7956      6.5290904     -2338.2666     -9245.485     
     19250   150.56064      298.46432     -2344.837       6.558522      -2338.2784     -13749.135    
     19300   131.18534      260.05565     -2343.994       5.7145213     -2338.2795     -13588.644    
     19350   140.76449      279.04489     -2344.4164      6.1317951     -2338.2846     -10698.216    
     19400   136.87779      271.3401      -2344.2544      5.9624882     -2338.292      -9737.3217    
     19450   147.93215      293.25374     -2344.7413      6.4440235     -2338.2973     -13495.858    
     19500   141.58312      280.66772     -2344.4747      6.1674555     -2338.3072     -11161.208    
     19550   153.39163      304.07636     -2345.003       6.6818422     -2338.3212     -12600.941    
     19600   148.87626      295.12529     -2344.813       6.4851494     -2338.3279     -7943.5541    
     19650   150.21071      297.77064     -2344.9213      6.543279      -2338.378      -11515.302    
     19700   134.17533      265.98287     -2344.1801      5.8447673     -2338.3353     -11023.58     
     19750   147.06235      291.52948     -2344.7539      6.4061343     -2338.3478     -11448.334    
     19800   135.06815      267.75274     -2344.2277      5.883659      -2338.344      -8847.0524    
     19850   145.92021      289.26535     -2344.7079      6.3563818     -2338.3515     -10740.202    
     19900   130.89001      259.4702      -2344.0538      5.7016564     -2338.3522     -9749.5979    
     19950   141.80286      281.10331     -2344.5381      6.1770274     -2338.3611     -8866.4626    
     20000   135.8706       269.34348     -2344.2862      5.9186141     -2338.3676     -11028.719    
     20050   141.93046      281.35627     -2344.5527      6.182586      -2338.3701     -9403.6426    
     20100   137.2096       271.99785     -2344.3426      5.9769419     -2338.3656     -8909.0766    
     20150   147.18632      291.77523     -2344.783       6.4115343     -2338.3714     -10966.253    
     20200   137.18807      271.95518     -2344.3433      5.9760043     -2338.3673     -6672.1231    
     20250   143.35891      284.18795     -2344.628       6.2448099     -2338.3832     -9326.6269    
     20300   138.53846      274.63212     -2344.4125      6.0348279     -2338.3777     -10334.172    
     20350   154.90874      307.08379     -2345.137       6.7479281     -2338.3891     -11712.778    
     20400   142.81822      283.11613     -2344.5986      6.2212573     -2338.3774     -9681.9726    
     20450   156.25094      309.74451     -2345.1871      6.8063954     -2338.3807     -9792.1877    
     20500   139.24892      276.0405      -2344.4407      6.065776      -2338.3749     -11385.312    
     20550   141.61167      280.72431     -2344.5395      6.1686991     -2338.3708     -8910.5312    
     20600   143.71927      284.90232     -2344.6305      6.2605076     -2338.3699     -10548.333    
     20650   142.7287       282.93865     -2344.5818      6.2173575     -2338.3644     -11676.245    
     20700   138.89392      275.33676     -2344.4219      6.0503119     -2338.3716     -6800.784     
     20750   144.39288      286.23766     -2344.6514      6.2898506     -2338.3615     -11660.345    
     20800   139.70539      276.9454      -2344.4462      6.0856604     -2338.3606     -14504.3      
     20850   143.5253       284.51779     -2344.6055      6.2520579     -2338.3534     -10887.641    
     20900   133.13407      263.91872     -2344.1428      5.7994091     -2338.3434     -11090.604    
     20950   150.92863      299.19381     -2344.9174      6.5745519     -2338.3428     -8732.9914    
     21000   135.39279      268.3963      -2344.2371      5.8978005     -2338.3393     -14921.482    
     21050   146.27945      289.97751     -2344.7082      6.3720309     -2338.3362     -11510.441    
     21100   139.57597      276.68884     -2344.4044      6.0800228     -2338.3243     -11304.221    
     21150   144.04786      285.55371     -2344.5259      6.2748213     -2338.2511     -11116.925    
     21200   140.44764      278.41679     -2344.371       6.1179931     -2338.253      -12772.681    
     21250   143.25543      283.98282     -2344.4752      6.2403024     -2338.2349     -10552.081    
     21300   139.90102      277.33319     -2344.3204      6.0941818     -2338.2263     -9197.557     
     21350   149.39355      296.15074     -2344.7293      6.5076829     -2338.2216     -10442.113    
     21400   129.42548      256.56699     -2343.831       5.6378606     -2338.1931     -11224.645    
     21450   144.83045      287.10507     -2344.4965      6.3089112     -2338.1876     -14099.228    
     21500   152.04639      301.40961     -2344.787       6.6232426     -2338.1638     -12327.153    
     21550   139.09482      275.73503     -2344.201       6.0590634     -2338.142      -10792.85     
     21600   149.83166      297.01923     -2344.6601      6.5267673     -2338.1333     -10448.318    
     21650   149.23255      295.83159     -2344.6164      6.5006699     -2338.1157     -9011.6757    
     21700   140.12362      277.77447     -2344.2059      6.1038786     -2338.102      -9859.5052    
     21750   142.39964      282.28635     -2344.282       6.2030237     -2338.079      -12669.599    
     21800   150.9166       299.16996     -2344.6364      6.574028      -2338.0623     -8073.4245    
     21850   155.35168      307.96187     -2344.8126      6.7672233     -2338.0454     -10565.657    
     21900   140.60881      278.73629     -2344.1423      6.125014      -2338.0173     -12478.11     
     21950   148.96169      295.29464     -2344.4771      6.4888708     -2337.9882     -10378.13     
     22000   148.37792      294.13741     -2344.4315      6.4634416     -2337.9681     -9879.2095    
     22050   153.03141      303.36227     -2344.6061      6.6661507     -2337.9399     -13271.272    
     22100   131.81157      261.29705     -2343.6486      5.7418001     -2337.9068     -12181.31     
     22150   142.50872      282.50258     -2344.0936      6.2077752     -2337.8859     -9734.3701    
     22200   141.42886      280.36193     -2344.0223      6.1607359     -2337.8616     -12198.569    
     22250   154.03192      305.34562     -2344.5395      6.7097333     -2337.8298     -8049.0466    
     22300   160.29836      317.76793     -2344.4775      6.9827038     -2337.4948     -12572.741    
     22350   157.56112      312.34174     -2344.3245      6.8634676     -2337.461      -11864.849    
     22400   165.63263      328.34234     -2344.6701      7.2150684     -2337.4551     -7331.5248    
     22450   158.81644      314.83025     -2344.385       6.9181505     -2337.4669     -12189.437    
     22500   159.72282      316.62701     -2344.3898      6.957633      -2337.4322     -9690.8328    
     22550   156.45548      310.14998     -2344.2247      6.8153054     -2337.4094     -7163.9793    
     22600   148.51137      294.40194     -2343.8522      6.4692544     -2337.383      -9518.6345    
     22650   156.2203       309.68377     -2344.1594      6.8050608     -2337.3544     -8159.7795    
     22700   149.63548      296.63034     -2343.8435      6.5182217     -2337.3253     -10919.771    
     22750   153.88999      305.06427     -2344.0211      6.7035507     -2337.3176     -10815.406    
     22800   157.83244      312.87961     -2344.1806      6.8752868     -2337.3053     -11107.41     
     22850   163.20624      323.53237     -2344.3832      7.109373      -2337.2739     -12275.534    
     22900   155.77175      308.79459     -2344.0253      6.7855218     -2337.2397     -7250.5126    
     22950   156.73509      310.70426     -2344.0307      6.8274852     -2337.2032     -8886.4974    
     23000   141.13139      279.77222     -2343.3054      6.1477776     -2337.1576     -10597.777    
     23050   152.50769      302.32407     -2343.7791      6.643337      -2337.1357     -5365.9749    
     23100   160.56208      318.29071     -2344.1151      6.9941915     -2337.1209     -10152.203    
     23150   162.84525      322.81675     -2344.1799      7.0936478     -2337.0863     -11490.309    
     23200   158.18037      313.56932     -2343.9654      6.8904426     -2337.0749     -9448.2978    
     23250   165.488        328.05561     -2344.2446      7.2087678     -2337.0358     -9571.0218    
     23300   158.82684      314.85085     -2343.8815      6.9186033     -2336.9629     -12917.302    
     23350   150.39444      298.13486     -2343.5268      6.5512824     -2336.9755     -10367.111    
     23400   148.09676      293.58005     -2343.4711      6.4511939     -2337.0199     -10767.76     
     23450   150.50629      298.35659     -2343.5614      6.5561547     -2337.0052     -11207.446    
     23500   154.96181      307.18901     -2343.7384      6.7502403     -2336.9882     -12793.926    
     23550   154.86716      307.00138     -2343.7181      6.7461173     -2336.9719     -12327.472    
     23600   168.76141      334.54468     -2344.3053      7.3513599     -2336.9539     -11772.941    
     23650   149.22473      295.81609     -2343.4307      6.5003293     -2336.9304     -13765.894    
     23700   146.2116       289.843       -2343.2832      6.3690752     -2336.9141     -11615.406    
     23750   155.53533      308.32592     -2343.6484      6.775223      -2336.8732     -13877.618    
     23800   158.3666       313.93849     -2343.7552      6.8985549     -2336.8566     -14533.63     
     23850   146.6406       290.69342     -2343.2167      6.3877624     -2336.829      -9514.1061    
     23900   158.11803      313.44574     -2343.7055      6.8877272     -2336.8177     -11844.153    
     23950   152.71135      302.72779     -2343.4404      6.6522084     -2336.7882     -11888.087    
     24000   168.85808      334.73631     -2344.1411      7.3555708     -2336.7856     -8842.4931    
     24050   172.55303      342.06101     -2344.2699      7.5165254     -2336.7534     -9769.016     
     24100   168.55689      334.13926     -2344.0696      7.3424511     -2336.7272     -9263.628     
     24150   160.69673      318.55763     -2343.6921      7.000057      -2336.692      -11925.691    
     24200   159.50474      316.1947      -2343.6248      6.9481334     -2336.6766     -9454.5574    
     24250   162.10973      321.35871     -2343.7433      7.0616085     -2336.6817     -11237.931    
     24300   156.87839      310.98835     -2343.5146      6.8337278     -2336.6808     -9462.0605    
     24350   160.6558       318.4765      -2343.675       6.9982742     -2336.6767     -9074.5235    
     24400   162.19064      321.51909     -2343.7468      7.0651327     -2336.6817     -11836.412    
     24450   167.05287      331.15775     -2343.9529      7.2769347     -2336.676      -9061.6476    
     24500   165.26033      327.6043      -2343.8522      7.1988506     -2336.6533     -12221.203    
     24550   156.39668      310.03342     -2343.4432      6.8127441     -2336.6304     -11179.593    
     24600   163.30408      323.72632     -2343.7363      7.1136348     -2336.6227     -13474.503    
     24650   143.79187      285.04623     -2342.8803      6.2636699     -2336.6167     -13455.3      
     24700   158.67498      314.54981     -2343.5259      6.9119882     -2336.6139     -11640.912    
     24750   166.40291      329.86931     -2343.879       7.2486223     -2336.6304     -10197.258    
     24800   146.14652      289.71398     -2343.0003      6.3662402     -2336.6341     -9842.6989    
     24850   166.64949      330.3581      -2343.8909      7.2593632     -2336.6316     -8938.3185    
     24900   160.93329      319.02659     -2343.6308      7.0103619     -2336.6204     -12186.515    
     24950   167.35533      331.75733     -2343.9212      7.2901102     -2336.6311     -7214.9539    
     25000   154.50764      306.28868     -2343.3489      6.7304563     -2336.6185     -11005.545    
     25050   166.47027      330.00282     -2343.8725      7.2515561     -2336.6209     -10527.65     
     25100   153.63231      304.55346     -2343.3957      6.6923261     -2336.7034     -8479.6957    
     25150   164.69809      326.48974     -2343.7989      7.1743589     -2336.6245     -11006.493    
     25200   150.13911      297.6287      -2343.1647      6.5401599     -2336.6245     -12093.283    
     25250   160.72496      318.6136      -2343.6198      7.0012868     -2336.6185     -7310.5003    
     25300   153.30472      303.90406     -2343.2864      6.6780561     -2336.6083     -8675.5028    
     25350   175.76489      348.42804     -2344.2718      7.656436      -2336.6154     -11838.126    
     25400   171.16932      339.318       -2344.0739      7.45625       -2336.6177     -8563.9207    
     25450   161.80508      320.75477     -2343.6699      7.0483374     -2336.6216     -9400.5515    
     25500   166.15815      329.3841      -2343.5532      7.2379602     -2336.3152     -9351.916     
     25550   170.92163      338.827       -2343.731       7.4454606     -2336.2855     -11642.328    
     25600   166.89042      330.83571     -2343.5659      7.2698583     -2336.2961     -7079.9431    
     25650   167.71784      332.47594     -2343.6118      7.3059011     -2336.3059     -11035.13     
     25700   174.12988      345.18688     -2343.8936      7.5852142     -2336.3084     -13354.302    
     25750   160.58205      318.33029     -2343.35        6.9950614     -2336.3549     -12465.725    
     25800   169.7645       336.53316     -2343.7294      7.3950553     -2336.3344     -9863.9293    
     25850   172.60701      342.16801     -2343.8437      7.5188768     -2336.3248     -11301.06     
     25900   153.14209      303.58167     -2342.9899      6.6709718     -2336.3189     -13613.204    
     25950   164.90915      326.90813     -2343.5218      7.1835527     -2336.3383     -9505.7924    
     26000   145.25424      287.94518     -2342.6675      6.327372      -2336.3402     -12491.217    
     26050   168.27133      333.57316     -2343.7157      7.3300116     -2336.3857     -12124.197    
     26100   156.08025      309.40614     -2343.2759      6.79896       -2336.4769     -13009.803    
     26150   145.21317      287.86376     -2342.7946      6.3255828     -2336.469      -11647.048    
     26200   150.50878      298.36152     -2343.0465      6.556263      -2336.4902     -12229.962    
     26250   160.33287      317.83634     -2343.4824      6.9842072     -2336.4982     -8634.7419    
     26300   172.67188      342.29661     -2343.9626      7.5217027     -2336.4409     -12411.247    
     26350   153.55767      304.40551     -2343.1455      6.689075      -2336.4564     -12852.342    
     26400   159.22956      315.64919     -2343.4164      6.9361462     -2336.4802     -15117.307    
     26450   158.04429      313.29957     -2343.3796      6.8845152     -2336.4951     -13288.752    
     26500   156.41488      310.06951     -2343.3236      6.813537      -2336.5101     -11375.304    
     26550   162.06148      321.26306     -2343.7102      7.0595066     -2336.6507     -9059.1101    
     26600   158.52911      314.26065     -2343.5512      6.9056341     -2336.6456     -11637.057    
     26650   158.76896      314.73611     -2343.5737      6.916082      -2336.6577     -11927.565    
     26700   144.33185      286.11666     -2342.9641      6.2871918     -2336.6769     -11929.626    
     26750   159.89031      316.95902     -2343.6702      6.9649287     -2336.7053     -12171.462    
     26800   158.77568      314.74944     -2343.3015      6.9163749     -2336.3851     -9000.3144    
     26850   160.98596      319.13099     -2343.4224      7.012656      -2336.4098     -10833.517    
     26900   161.56036      320.26965     -2343.4657      7.0376773     -2336.428      -11332.519    
     26950   176.71245      350.30645     -2344.1515      7.6977125     -2336.4538     -14070.232    
     27000   166.17571      329.41892     -2343.7063      7.2387252     -2336.4676     -12209.094    
     27050   163.64666      324.40543     -2343.634       7.1285579     -2336.5054     -12079.641    
     27100   160.72027      318.6043      -2343.5432      7.0010825     -2336.5421     -8912.5237    
     27150   152.83057      302.96412     -2343.2244      6.6574017     -2336.567      -12855.878    
     27200   165.73715      328.54954     -2343.818       7.2196213     -2336.5984     -11957.259    
     27250   168.59127      334.20739     -2343.9635      7.3439483     -2336.6196     -13204.844    
     27300   168.95086      334.92022     -2343.9935      7.3596123     -2336.6339     -11795.89     
     27350   155.12058      307.50374     -2343.4032      6.7571563     -2336.646      -12764.198    
     27400   144.60967      286.6674      -2342.9762      6.2992939     -2336.6769     -8526.1986    
     27450   153.97494      305.23267     -2343.4203      6.7072512     -2336.7131     -13770.999    
     27500   166.73163      330.52094     -2343.9938      7.2629415     -2336.7309     -13459.421    
     27550   163.50914      324.13283     -2343.9074      7.1225676     -2336.7849     -10078.096    
     27600   161.08913      319.33551     -2343.8205      7.0171503     -2336.8034     -13455.644    
     27650   150.20099      297.75137     -2343.3442      6.5428556     -2336.8014     -8485.4149    
     27700   172.19986      341.36089     -2344.3808      7.5011409     -2336.8797     -9335.5035    
     27750   158.66093      314.52195     -2343.8579      6.9113761     -2336.9465     -11124.903    
     27800   158.00441      313.2205      -2343.8689      6.8827776     -2336.9861     -8847.8607    
     27850   154.59129      306.4545      -2343.7437      6.7341001     -2337.0096     -8933.1802    
     27900   177.41612      351.70138     -2344.7721      7.7283651     -2337.0437     -6662.09      
     27950   155.47225      308.20088     -2343.8405      6.7724753     -2337.068      -12419.809    
     28000   155.60778      308.46954     -2343.8723      6.7783791     -2337.0939     -9620.3655    
     28050   160.08202      317.33907     -2344.0875      6.97328       -2337.1143     -12473.092    
     28100   157.37359      311.97        -2343.9879      6.8552989     -2337.1326     -10285.247    
     28150   164.77495      326.6421      -2344.3358      7.1777069     -2337.1581     -11085.426    
     28200   161.81431      320.77307     -2344.2402      7.0487396     -2337.1915     -9928.8059    
     28250   162.67281      322.47493     -2344.2283      7.0861366     -2337.1421     -9983.4578    
     28300   163.72933      324.56932     -2344.2927      7.1321592     -2337.1605     -13164.213    
     28350   157.91124      313.03581     -2344.0621      6.8787192     -2337.1834     -7309.9223    
     28400   156.55332      310.34394     -2344.0202      6.8195675     -2337.2007     -13265.074    
     28450   172.55627      342.06743     -2344.7549      7.5166666     -2337.2382     -13030.071    
     28500   160.38736      317.94436     -2344.2596      6.9865808     -2337.273      -10086.382    
     28550   150.31995      297.9872      -2343.8406      6.5480376     -2337.2926     -8289.0666    
     28600   158.48246      314.16818     -2344.2116      6.9036021     -2337.308      -12139.307    
     28650   165.10097      327.28839     -2344.4774      7.1919085     -2337.2855     -13220.044    
     28700   152.71286      302.73078     -2343.8814      6.6522743     -2337.2291     -8263.3808    
     28750   154.84115      306.94982     -2343.9938      6.7449842     -2337.2489     -11161.093    
     28800   153.96829      305.2195      -2343.9259      6.7069618     -2337.219      -8841.428     
     28850   154.93044      307.12681     -2343.9573      6.7488735     -2337.2085     -11318.671    
     28900   150.10011      297.55139     -2343.7759      6.5384611     -2337.2375     -14828.406    
     28950   147.98588      293.36025     -2343.7001      6.4463641     -2337.2538     -12218.443    
     29000   152.56149      302.43072     -2343.9206      6.6456806     -2337.2749     -10809.736    
     29050   145.72989      288.88808     -2343.6681      6.3480916     -2337.32       -14723.112    
     29100   167.55986      332.16279     -2344.6436      7.2990198     -2337.3445     -13179.065    
     29150   150.9498       299.23579     -2343.953       6.5754744     -2337.3775     -10434.988    
     29200   162.73852      322.60518     -2344.4757      7.0889987     -2337.3867     -12500.214    
     29250   171.57404      340.1203      -2344.8686      7.4738798     -2337.3947     -9829.971     
     29300   165.70025      328.47637     -2344.63        7.2180135     -2337.412      -12957.003    
     29350   157.32593      311.87552     -2344.2874      6.8532226     -2337.4342     -11480.524    
     29400   152.41615      302.14261     -2344.005       6.6393495     -2337.3657     -9548.0983    
     29450   162.44415      322.02164     -2344.4486      7.0761758     -2337.3725     -15154.14     
     29500   171.59798      340.16775     -2344.7503      7.4749227     -2337.2753     -9186.7179    
     29550   162.93541      322.99549     -2344.3881      7.0975755     -2337.2905     -11833.89     
     29600   160.22147      317.6155      -2344.2777      6.9793544     -2337.2984     -9381.7813    
     29650   163.17413      323.46872     -2344.4595      7.1079743     -2337.3515     -12829.57     
     29700   149.61386      296.58747     -2343.9111      6.5172797     -2337.3938     -13023.86     
     29750   156.07635      309.39841     -2344.2148      6.7987902     -2337.416      -12447.646    
     29800   143.81252      285.08717     -2343.6805      6.2645695     -2337.416      -12087.178    
     29850   161.15473      319.46556     -2344.4261      7.020008      -2337.406      -11270.193    
     29900   140.64649      278.81098     -2343.5277      6.1266551     -2337.4011     -11265.219    
     29950   155.04931      307.36246     -2344.1652      6.7540518     -2337.4111     -11698.413    
     30000   153.85223      304.98942     -2344.1227      6.7019061     -2337.4208     -12696.522    
     30050   148.94565      295.26285     -2343.9094      6.4881722     -2337.4212     -9498.0005    
     30100   169.97563      336.95169     -2344.8825      7.4042522     -2337.4782     -13853.414    
     30150   155.20895      307.67892     -2344.2487      6.7610057     -2337.4877     -9703.3755    
     30200   154.51608      306.30541     -2344.2356      6.7308239     -2337.5047     -15257.789    
     30250   157.65586      312.52956     -2344.3791      6.8675948     -2337.5115     -9406.2194    
     30300   165.20282      327.49029     -2344.7134      7.1963452     -2337.517      -8781.1202    
     30350   151.7953       300.91186     -2344.1412      6.6123048     -2337.5289     -13490.471    
     30400   156.6862       310.60735     -2344.3689      6.8253556     -2337.5436     -9588.137     
     30450   155.46581      308.18811     -2344.3211      6.7721947     -2337.5489     -11732.843    
     30500   153.97799      305.23873     -2344.2736      6.7073843     -2337.5663     -10864.074    
     30550   153.35775      304.00919     -2344.2542      6.6803663     -2337.5738     -11686.603    
     30600   158.739        314.67672     -2344.5011      6.914777      -2337.5863     -12413.675    
     30650   158.6597       314.51952     -2344.5083      6.9113226     -2337.597      -10718.728    
     30700   161.29435      319.74232     -2344.5973      7.0260896     -2337.5712     -9954.1604    
     30750   160.90343      318.96739     -2344.5943      7.009061      -2337.5853     -10053.259    
     30800   158.50675      314.21632     -2344.5066      6.90466       -2337.6019     -8895.9602    
     30850   156.56679      310.37064     -2344.4476      6.8201542     -2337.6274     -10393.679    
     30900   152.21868      301.75115     -2344.2756      6.6307475     -2337.6449     -10785.394    
     30950   150.74514      298.83007     -2344.2186      6.566559      -2337.6521     -11774.232    
     31000   145.50273      288.43777     -2344.0266      6.3381963     -2337.6884     -12561.901    
     31050   144.31998      286.09313     -2343.9956      6.2866748     -2337.7089     -11308.525    
     31100   153.74741      304.78164     -2344.4007      6.6973402     -2337.7034     -12217.323    
     31150   151.07039      299.47483     -2344.3372      6.5807271     -2337.7564     -11042.59     
     31200   149.34231      296.04918     -2344.2378      6.5054511     -2337.7324     -11693.048    
     31250   164.48419      326.06573     -2344.8853      7.1650415     -2337.7203     -11623.453    
[...]
    191700   219.2223       434.57597     -2343.6815      9.54947       -2334.132      -13735.258    
    191750   208.54937      413.41845     -2343.1296      9.0845499     -2334.045      -5957.3976    
    191800   204.86923      406.12312     -2343.0649      8.9242406     -2334.1407     -8243.1532    
    191850   207.83582      412.00394     -2343.2915      9.0534672     -2334.238      -11103.802    
    191900   217.33372      430.83214     -2343.5416      9.4672023     -2334.0744     -11889.205    
    191950   204.64417      405.67697     -2343.074       8.9144369     -2334.1596     -10790.41     
    192000   199.01321      394.51442     -2342.8541      8.6691485     -2334.185      -8608.1185    
    192050   209.40438      415.11338     -2343.3762      9.1217947     -2334.2544     -6397.2129    
    192100   212.56857      421.38592     -2343.5526      9.259629      -2334.293      -8702.03      
    192150   201.02332      398.49917     -2343.2038      8.7567103     -2334.4471     -11640.335    
    192200   212.88193      422.00711     -2343.8226      9.2732791     -2334.5493     -9690.8765    
    192250   206.50656      409.36889     -2343.6377      8.9955639     -2334.6422     -10424.503    
    192300   207.38155      411.10342     -2343.7469      9.033679      -2334.7132     -8193.4221    
    192350   197.86307      392.23444     -2343.3167      8.6190477     -2334.6977     -6671.9741    
    192400   207.99716      412.32378     -2343.8783      9.0604954     -2334.8178     -10496.622    
    192450   205.21363      406.80584     -2343.9433      8.939243      -2335.0041     -9515.7626    
    192500   190.60507      377.84653     -2343.3938      8.3028846     -2335.0909     -11544.153    
    192550   212.35613      420.9648      -2344.3108      9.2503751     -2335.0604     -6971.1561    
    192600   194.34644      385.26324     -2343.6265      8.4658611     -2335.1606     -11749.679    
    192650   192.71207      382.02334     -2343.6233      8.3946667     -2335.2287     -10845.543    
    192700   174.32257      345.56886     -2342.875       7.5936077     -2335.2814     -8836.2644    
    192750   197.66831      391.84835     -2343.8801      8.6105636     -2335.2695     -8791.9251    
    192800   205.98643      408.3378      -2344.3363      8.9729066     -2335.3634     -9560.7235    
    192850   218.62854      433.39894     -2344.8184      9.5236056     -2335.2947     -7861.3554    
    192900   174.95336      346.81931     -2342.9886      7.6210854     -2335.3675     -9275.1256    
    192950   180.27497      357.36862     -2343.3015      7.8528983     -2335.4486     -11570.188    
    193000   196.13828      388.8153      -2344.2543      8.5439148     -2335.7103     -7635.2086    
    193050   175.76621      348.43066     -2343.4574      7.6564936     -2335.8009     -8801.9145    
    193100   186.57958      369.86658     -2343.9978      8.1275314     -2335.8703     -12230.28     
    193150   205.5634       407.49922     -2344.6807      8.9544794     -2335.7262     -9400.1459    
    193200   201.96263      400.36121     -2344.0669      8.7976272     -2335.2693     -11254.188    
    193250   196.51993      389.57186     -2343.5454      8.5605396     -2334.9849     -5767.2551    
    193300   211.9767       420.21264     -2344.3127      9.2338469     -2335.0789     -7685.9665    
    193350   197.9938       392.4936      -2344.0503      8.6247426     -2335.4256     -11929.073    
    193400   208.84289      414.00032     -2344.5033      9.097336      -2335.4059     -11823.353    
    193450   189.54241      375.73996     -2343.7458      8.2565943     -2335.4892     -14775.952    
    193500   178.29962      353.45277     -2343.3131      7.7668505     -2335.5463     -14515.088    
    193550   188.99943      374.66357     -2343.0972      8.2329414     -2334.8642     -10464.606    
    193600   181.13376      359.07103     -2342.9244      7.8903076     -2335.0341     -6063.3679    
    193650   182.74674      362.26854     -2343.0635      7.9605704     -2335.1029     -10809.41     
    193700   196.03962      388.61972     -2343.2481      8.5396169     -2334.7085     -15740.811    
    193750   186.81394      370.33117     -2342.7035      8.1377403     -2334.5658     -10844.095    
    193800   178.78767      354.42027     -2342.4302      7.7881106     -2334.6421     -13572.394    
    193850   188.05724      372.79583     -2342.9153      8.1918993     -2334.7234     -9973.0288    
    193900   190.37946      377.39928     -2343.0879      8.2930565     -2334.7949     -10172.293    
    193950   179.45602      355.74517     -2342.3242      7.8172242     -2334.5069     -13984.567    
    194000   178.04048      352.93908     -2342.3151      7.7555625     -2334.5595     -12674.971    
    194050   190.03417      376.71479     -2342.9748      8.2780155     -2334.6968     -9584.8995    
    194100   194.53106      385.62921     -2343.2796      8.4739029     -2334.8057     -9889.7542    
    194150   179.95885      356.74195     -2342.6208      7.8391277     -2334.7817     -10973.009    
    194200   193.02745      382.64853     -2343.275       8.4084048     -2334.8666     -7193.552     
    194250   198.9033       394.29654     -2343.6138      8.6643608     -2334.9494     -6908.718     
    194300   192.26607      381.13921     -2343.4059      8.3752385     -2335.0307     -12355.398    
    194350   203.28666      402.98591     -2343.9635      8.855303      -2335.1082     -13298.845    
    194400   203.88702      404.17604     -2343.5484      8.8814551     -2334.6669     -7296.9902    
    194450   189.41844      375.49419     -2343.0032      8.2511937     -2334.752      -11240.151    
    194500   182.08631      360.95933     -2342.7942      7.9318014     -2334.8624     -8855.0191    
    194550   181.96174      360.71238     -2342.8209      7.9263749     -2334.8945     -11282.812    
    194600   181.65953      360.1133      -2343.0351      7.9132106     -2335.1219     -8961.4966    
    194650   184.4499       365.6448      -2343.1469      8.034761      -2335.1121     -8759.0921    
    194700   201.42676      399.29893     -2343.972       8.7742845     -2335.1977     -8490.6949    
    194750   196.94594      390.41637     -2343.8391      8.5790969     -2335.26       -12220.803    
    194800   195.10269      386.76239     -2343.6935      8.4988036     -2335.1947     -8424.8005    
    194850   186.70574      370.11668     -2343.5381      8.133027      -2335.4051     -7369.7631    
    194900   189.40047      375.45858     -2343.8682      8.2504111     -2335.6178     -13854.892    
    194950   200.59934      397.6587      -2344.3373      8.7382415     -2335.5991     -11318.191    
    195000   180.89665      358.601       -2343.4708      7.879979      -2335.5908     -6932.2065    
    195050   181.84803      360.48698     -2343.6013      7.9214219     -2335.6799     -12520.868    
    195100   178.06272      352.98316     -2343.6017      7.7565311     -2335.8451     -10729.992    
    195150   190.59375      377.82408     -2344.1721      8.3023913     -2335.8697     -7411.4697    
    195200   195.72218      387.99045     -2343.9868      8.5257892     -2335.461      -13081.425    
    195250   195.57065      387.69005     -2344.1319      8.5191882     -2335.6127     -7231.2259    
    195300   190.12632      376.89747     -2343.8793      8.2820296     -2335.5972     -6563.6896    
    195350   186.17557      369.0657      -2343.785       8.1099325     -2335.6751     -10890.48     
    195400   199.61237      395.70217     -2344.0464      8.6952484     -2335.3512     -8191.1214    
    195450   179.38646      355.60728     -2343.2474      7.8141942     -2335.4332     -7820.0309    
    195500   213.68822      423.60548     -2344.6179      9.3084019     -2335.3095     -9173.2604    
    195550   178.72009      354.2863      -2343.3166      7.7851666     -2335.5314     -11516.183    
    195600   189.28841      375.23644     -2343.9104      8.2455298     -2335.6649     -8712.134     
    195650   189.68726      376.02711     -2344.0058      8.2629041     -2335.7429     -6344.033     
    195700   185.12732      366.9877      -2343.8843      8.0642701     -2335.82       -11188.38     
    195750   183.95257      364.65891     -2343.5066      8.0130968     -2335.4935     -9653.8976    
    195800   189.4819       375.62001     -2343.7892      8.2539584     -2335.5353     -12688.379    
    195850   188.99885      374.66243     -2343.8522      8.2329163     -2335.6193     -12284.877    
    195900   170.25366      337.50284     -2343.1066      7.4163633     -2335.6903     -12410.023    
    195950   205.24211      406.8623      -2344.7223      8.9404836     -2335.7818     -11786.143    
    196000   186.58892      369.88509     -2343.9799      8.127938      -2335.8519     -12646.392    
    196050   186.58535      369.87801     -2344.2662      8.1277826     -2336.1385     -10056.785    
    196100   181.14753      359.09833     -2343.9782      7.8909075     -2336.0872     -8444.3616    
    196150   191.13058      378.88828     -2344.4593      8.3257761     -2336.1335     -16537.194    
    196200   185.52416      367.77437     -2344.271       8.0815566     -2336.1894     -10302.02     
    196250   191.54879      379.71731     -2344.4724      8.3439935     -2336.1284     -7233.7201    
    196300   181.45435      359.70656     -2343.7683      7.9042728     -2335.864      -10150.005    
    196350   197.61019      391.73314     -2344.2561      8.6080321     -2335.6481     -9802.3207    
    196400   184.02782      364.80809     -2343.688       8.0163749     -2335.6717     -9060.0366    
    196450   177.42286      351.71473     -2343.4711      7.7286586     -2335.7425     -7169.7706    
    196500   173.36482      343.67026     -2343.3733      7.5518875     -2335.8214     -6936         
    196550   174.27892      345.48232     -2343.6429      7.5917062     -2336.0512     -13537.471    
    196600   195.54015      387.62959     -2344.3155      8.5178596     -2335.7976     -13563.808    
    196650   188.88553      374.43778     -2344.0808      8.2279798     -2335.8528     -15353.444    
    196700   175.62514      348.15101     -2343.5838      7.6503484     -2335.9334     -11726.81     
    196750   198.17396      392.85074     -2344.5342      8.6325904     -2335.9016     -12376.189    
    196800   179.8679       356.56166     -2343.494       7.8351661     -2335.6588     -7726.2685    
    196850   180.89091      358.58963     -2344.1056      7.879729      -2336.2258     -10390.942    
    196900   189.00979      374.68411     -2344.2927      8.2333929     -2336.0593     -12502.172    
    196950   184.6678       366.07676     -2344.201       8.044253      -2336.1568     -9145.8701    
    197000   177.51         351.88748     -2343.9352      7.7324545     -2336.2028     -13192.682    
    197050   172.71536      342.3828      -2343.7304      7.5235965     -2336.2068     -10544.209    
    197100   179.91216      356.64939     -2344.0567      7.8370938     -2336.2196     -11703.223    
    197150   186.70833      370.12181     -2344.4156      8.1331399     -2336.2824     -10271.798    
    197200   185.22943      367.19011     -2344.4729      8.068718      -2336.4042     -12442.203    
    197250   174.26842      345.46151     -2344.0603      7.5912489     -2336.4691     -8912.7159    
    197300   168.08104      333.19595     -2343.8251      7.3217226     -2336.5034     -9902.954     
    197350   174.02866      344.98624     -2344.0029      7.580805      -2336.4221     -11689.54     
    197400   186.94317      370.58735     -2344.6407      8.1433697     -2336.4973     -12293.151    
    197450   178.16766      353.19119     -2344.3498      7.7611026     -2336.5887     -10106.654    
    197500   173.68429      344.30357     -2344.2001      7.565804      -2336.6343     -9733.8461    
    197550   171.96806      340.90139     -2344.1164      7.4910437     -2336.6254     -10326.613    
    197600   174.43478      345.7913      -2344.3162      7.5984957     -2336.7177     -9298.3533    
    197650   167.44666      331.93837     -2344.1766      7.2940883     -2336.8825     -10847.706    
    197700   192.41655      381.43751     -2345.3399      8.3817935     -2336.9581     -11083.929    
    197750   175.81822      348.53377     -2344.6464      7.6587594     -2336.9877     -10584.746    
    197800   176.3173       349.52313     -2344.8364      7.6804997     -2337.1559     -10634.639    
    197850   167.70317      332.44687     -2344.4628      7.3052623     -2337.1576     -9900.4219    
    197900   184.11289      364.97673     -2344.6865      8.0200807     -2336.6664     -8866.7338    
    197950   192.24505      381.09754     -2344.7431      8.3743229     -2336.3688     -11180.953    
    198000   176.05585      349.00484     -2344.0774      7.6691107     -2336.4083     -10923.731    
    198050   172.61558      342.185       -2344.0009      7.5192501     -2336.4816     -10665.368    
    198100   185.19445      367.12077     -2344.627       8.0671942     -2336.5598     -5776.7979    
    198150   168.4954       334.01736     -2344.1017      7.3397724     -2336.7619     -12247.562    
    198200   185.43723      367.60203     -2344.8715      8.0777697     -2336.7938     -8014.6442    
    198250   172.78197      342.51485     -2344.2602      7.5264982     -2336.7337     -10562.969    
    198300   175.53702      347.97633     -2344.4404      7.6465099     -2336.7939     -11602.103    
    198350   189.95536      376.55856     -2345.114       8.2745825     -2336.8394     -9751.8362    
    198400   172.13922      341.2407      -2343.7997      7.4984997     -2336.3012     -5415.7125    
    198450   168.27771      333.58582     -2343.6932      7.3302898     -2336.3629     -9447.0623    
    198500   181.66983      360.13372     -2344.2792      7.9136594     -2336.3655     -10387.656    
    198550   190.01154      376.66993     -2344.442       8.2770296     -2336.1649     -9468.0733    
    198600   199.82522      396.12411     -2344.2137      8.7045202     -2335.5092     -12023.829    
    198650   217.0438       430.25742     -2343.9287      9.4545731     -2334.4742     -10495.346    
    198700   200.15552      396.77889     -2343.2456      8.7189084     -2334.5267     -9551.5436    
    198750   186.20291      369.11989     -2342.721       8.1111233     -2334.6099     -5572.5482    
    198800   191.54255      379.70494     -2343.0191      8.3437216     -2334.6754     -12781.971    
    198850   221.34718      438.78822     -2344.3908      9.642031      -2334.7488     -11443.284    
    198900   205.57309      407.51843     -2343.7862      8.9549014     -2334.8313     -11368.895    
    198950   178.56293      353.97474     -2342.6915      7.7783205     -2334.9132     -8903.6217    
    199000   206.70626      409.76477     -2344.0039      9.0042632     -2334.9996     -10511.458    
    199050   184.94592      366.62809     -2343.153       8.0563681     -2335.0966     -11549.481    
    199100   180.4205       357.6571      -2343.0452      7.8592375     -2335.186      -7293.9263    
    199150   196.81432      390.15544     -2343.8537      8.5733633     -2335.2803     -9377.6012    
    199200   188.50136      373.67623     -2343.5693      8.2112455     -2335.358      -11789.43     
    199250   181.43201      359.66229     -2343.3488      7.9032999     -2335.4455     -10100.351    
    199300   187.45155      371.59513     -2343.6796      8.1655148     -2335.5141     -9719.6826    
    199350   199.13627      394.75837     -2344.345       8.6745092     -2335.6705     -12473.859    
    199400   184.97003      366.67588     -2343.7006      8.0574181     -2335.6432     -12061.722    
    199450   180.55951      357.93268     -2343.586       7.8652932     -2335.7207     -14455.221    
    199500   199.03655      394.56069     -2344.476       8.6701652     -2335.8059     -12364.988    
    199550   190.38543      377.41112     -2344.1804      8.2933167     -2335.887      -9732.1926    
    199600   171.76437      340.49761     -2343.4461      7.4821711     -2335.9639     -11522        
    199650   181.32641      359.45293     -2343.9456      7.8986995     -2336.0469     -8144.1108    
    199700   188.47004      373.61414     -2344.3285      8.209881      -2336.1186     -11538.954    
    199750   175.39949      347.7037      -2343.8334      7.6405193     -2336.1929     -13823.231    
    199800   187.15831      371.01382     -2344.4281      8.1527411     -2336.2754     -10662.61     
    199850   180.65844      358.12879     -2344.2143      7.8696025     -2336.3447     -9687.3087    
    199900   176.53541      349.95549     -2344.1106      7.6900006     -2336.4206     -12059.774    
    199950   169.0806       335.17742     -2343.8618      7.3652639     -2336.4965     -9981.9553    
    200000   170.52833      338.04734     -2343.9977      7.4283283     -2336.5694     -14067.759    
colvars: Saving collective variables state to "out.colvars.state".
Loop time of 1062.29 on 4 procs for 200000 steps with 338 atoms

Performance: 8.133 ns/day, 2.951 hours/ns, 188.272 timesteps/s, 63.636 katom-step/s
137.7% CPU use with 4 MPI tasks x 1 OpenMP threads

MPI task timing breakdown:
Section |  min time  |  avg time  |  max time  |%varavg| %total
---------------------------------------------------------------
Pair    | 824.46     | 908.48     | 972.77     | 206.8 | 85.52
Neigh   | 0.11803    | 1.5364     | 2.5944     |  76.0 |  0.14
Comm    | 14.367     | 74.108     | 147.82     | 659.6 |  6.98
Output  | 39.776     | 46.005     | 52.964     |  85.9 |  4.33
Modify  | 17.882     | 23.503     | 34.759     | 141.0 |  2.21
Other   |            | 8.66       |            |       |  0.82

Nlocal:           84.5 ave         123 max           7 min
Histogram: 1 0 0 0 0 0 0 1 0 2
Nghost:        1148.75 ave        1669 max         735 min
Histogram: 1 0 1 0 0 1 0 0 0 1
Neighs:              0 ave           0 max           0 min
Histogram: 4 0 0 0 0 0 0 0 0 0
FullNghs:      14767.5 ave       23565 max         848 min
Histogram: 1 0 0 0 0 1 0 0 0 2

Total # of neighbors = 59070
Ave neighs/atom = 174.76331
Neighbor list builds = 2688
Dangerous builds = 0
write_data final.data
System init for write_data ...
Generated 0 of 10 mixed pair_coeff terms from geometric mixing rule

CITE-CITE-CITE-CITE-CITE-CITE-CITE-CITE-CITE-CITE-CITE-CITE-CITE

Your simulation uses code contributions which should be cited:

- Colvars module (Fiorin2013, plus other works listed for specific features)


% Colvars module:
% Colvars-LAMMPS interface:
% Metadynamics colvar bias implementation:
% Optimal rotation via flexible fitting:
% coordNum colvar component:

@article{Fiorin2013,
  author = {Fiorin, Giacomo and Klein, Michael L.{} and H\'enin, J\'er\^ome},
  title = {Using collective variables to drive molecular dynamics simulations},
  journal = {Mol. Phys.},
  year = {2013},
  volume = {111},
  number = {22-23},
  pages = {3345--3362},
  publisher = {Taylor & Francis},
  doi = {10.1080/00268976.2013.813594},
  url = {https://doi.org/10.1080/00268976.2013.813594}
}


% LAMMPS engine:

@article{Thompson2022,
  title = {{LAMMPS} - a flexible simulation tool for particle-based materials modeling at the atomic, meso, and continuum scales},
  author = {Thompson, Aidan P. and Aktulga, H. Metin and Berger, Richard and Bolintineanu, Dan S. and Brown, W. Michael and Crozier, Paul S. and {in't Veld}, Pieter J. and Kohlmeyer, Axel and Moore, Stan G. and Nguyen, Trung Dac and Shan, Ray and Stevens, Mark J. and Tranchida, Julien and Trott, Christian and Plimpton, Steven J.},
  journal = {Comp. Phys. Comm.},
  volume = {271},
  pages = {108171},
  year = {2022},
  doi = {10.1016/j.cpc.2021.108171},
  url = {https://doi.org/10.1016/j.cpc.2021.108171}
}

CITE-CITE-CITE-CITE-CITE-CITE-CITE-CITE-CITE-CITE-CITE-CITE-CITE

Total wall time: 0:18:09
