 # File generated with Atomsk by baoergen22b on 2025-10-10 13:34:48
  
         339  atoms
           4  atom types
 
      0.000000000000      11.328000000000  xlo xhi
      0.000000000000      12.015000000000  ylo yhi
      0.000000000000      32.000000000000  zlo zhi
 
Masses
 
            1   55.84500000             # Fe
            2   15.99900000             # O
            3   1.00800000              # H
            4   35.45000000             # Cl
 
Atoms # atomic
 
         1    1        0.000000000000       0.000000000000       0.000000000000
         2    1        0.000000000000       2.002540050000       2.002880000000
         3    1        0.000000000000       0.000000000000       4.005120000000
         4    1        0.000000000000       2.002540050000       6.008000000000
         5    1        0.000000000000       0.000000000000       8.009920000000
         6    1        0.000000000000       2.002540050000      10.011840000000
         7    1        0.000000000000       0.000000000000      12.015040000000
         8    1        1.416000000000       2.002540050000       0.000000000000
         9    1        1.416000000000       0.000000000000       2.002880000000
        10    1        1.416000000000       2.002540050000       4.005120000000
        11    1        1.416000000000       0.000000000000       6.008000000000
        12    1        1.416000000000       2.002540050000       8.009920000000
        13    1        1.416000000000       0.000000000000      10.011840000000
        14    1        1.416000000000       2.002540050000      12.015040000000
        15    1        2.832000000000       0.000000000000       0.000000000000
        16    1        2.832000000000       2.002540050000       2.002880000000
        17    1        2.832000000000       0.000000000000       4.005120000000
        18    1        2.832000000000       2.002540050000       6.008000000000
        19    1        2.832000000000       0.000000000000       8.009920000000
        20    1        2.832000000000       2.002540050000      10.011840000000
        21    1        2.832000000000       0.000000000000      12.015040000000
        22    1        4.248000000000       2.002540050000       0.000000000000
        23    1        4.248000000000       0.000000000000       2.002880000000
        24    1        4.248000000000       2.002540050000       4.005120000000
        25    1        4.248000000000       0.000000000000       6.008000000000
        26    1        4.248000000000       2.002540050000       8.009920000000
        27    1        4.248000000000       0.000000000000      10.011840000000
        28    1        4.248000000000       2.002540050000      12.015040000000
        29    1        5.664000000000       0.000000000000       0.000000000000
        30    1        5.664000000000       2.002540050000       2.002880000000
        31    1        5.664000000000       0.000000000000       4.005120000000
        32    1        5.664000000000       2.002540050000       6.008000000000
        33    1        5.664000000000       0.000000000000       8.009920000000
        34    1        5.664000000000       2.002540050000      10.011840000000
        35    1        5.664000000000       0.000000000000      12.015040000000
        36    1        7.080000000000       2.002540050000       0.000000000000
        37    1        7.080000000000       0.000000000000       2.002880000000
        38    1        7.080000000000       2.002540050000       4.005120000000
        39    1        7.080000000000       0.000000000000       6.008000000000
        40    1        7.080000000000       2.002540050000       8.009920000000
        41    1        7.080000000000       0.000000000000      10.011840000000
        42    1        7.080000000000       2.002540050000      12.015040000000
        43    1        8.496000000000       0.000000000000       0.000000000000
        44    1        8.496000000000       2.002540050000       2.002880000000
        45    1        8.496000000000       0.000000000000       4.005120000000
        46    1        8.496000000000       2.002540050000       6.008000000000
        47    1        8.496000000000       0.000000000000       8.009920000000
        48    1        8.496000000000       2.002540050000      10.011840000000
        49    1        8.496000000000       0.000000000000      12.015040000000
        50    1        9.912000000000       2.002540050000       0.000000000000
        51    1        9.912000000000       0.000000000000       2.002880000000
        52    1        9.912000000000       2.002540050000       4.005120000000
        53    1        9.912000000000       0.000000000000       6.008000000000
        54    1        9.912000000000       2.002540050000       8.009920000000
        55    1        9.912000000000       0.000000000000      10.011840000000
        56    1        9.912000000000       2.002540050000      12.015040000000
        57    1        0.000000000000       4.004959950000       0.000000000000
        58    1        0.000000000000       6.007500000000       2.002880000000
        59    1        0.000000000000       4.004959950000       4.005120000000
        60    1        0.000000000000       6.007500000000       6.008000000000
        61    1        0.000000000000       4.004959950000       8.009920000000
        62    1        0.000000000000       6.007500000000      10.011840000000
        63    1        0.000000000000       4.004959950000      12.015040000000
        64    1        1.416000000000       6.007500000000       0.000000000000
        65    1        1.416000000000       4.004959950000       2.002880000000
        66    1        1.416000000000       6.007500000000       4.005120000000
        67    1        1.416000000000       4.004959950000       6.008000000000
        68    1        1.416000000000       6.007500000000       8.009920000000
        69    1        1.416000000000       4.004959950000      10.011840000000
        70    1        1.416000000000       6.007500000000      12.015040000000
        71    1        2.832000000000       4.004959950000       0.000000000000
        72    1        2.832000000000       6.007500000000       2.002880000000
        73    1        2.832000000000       4.004959950000       4.005120000000
        74    1        2.832000000000       6.007500000000       6.008000000000
        75    1        2.832000000000       4.004959950000       8.009920000000
        76    1        2.832000000000       6.007500000000      10.011840000000
        77    1        2.832000000000       4.004959950000      12.015040000000
        78    1        4.248000000000       6.007500000000       0.000000000000
        79    1        4.248000000000       4.004959950000       2.002880000000
        80    1        4.248000000000       6.007500000000       4.005120000000
        81    1        4.248000000000       4.004959950000       6.008000000000
        82    1        4.248000000000       6.007500000000       8.009920000000
        83    1        4.248000000000       4.004959950000      10.011840000000
        84    1        4.248000000000       6.007500000000      12.015040000000
        85    1        5.664000000000       4.004959950000       0.000000000000
        86    1        5.664000000000       6.007500000000       2.002880000000
        87    1        5.664000000000       4.004959950000       4.005120000000
        88    1        5.664000000000       6.007500000000       6.008000000000
        89    1        5.664000000000       4.004959950000       8.009920000000
        90    1        5.664000000000       6.007500000000      10.011840000000
        91    1        5.664000000000       4.004959950000      12.015040000000
        92    1        7.080000000000       6.007500000000       0.000000000000
        93    1        7.080000000000       4.004959950000       2.002880000000
        94    1        7.080000000000       6.007500000000       4.005120000000
        95    1        7.080000000000       4.004959950000       6.008000000000
        96    1        7.080000000000       6.007500000000       8.009920000000
        97    1        7.080000000000       4.004959950000      10.011840000000
        98    1        7.080000000000       6.007500000000      12.015040000000
        99    1        8.496000000000       4.004959950000       0.000000000000
       100    1        8.496000000000       6.007500000000       2.002880000000
       101    1        8.496000000000       4.004959950000       4.005120000000
       102    1        8.496000000000       6.007500000000       6.008000000000
       103    1        8.496000000000       4.004959950000       8.009920000000
       104    1        8.496000000000       6.007500000000      10.011840000000
       105    1        8.496000000000       4.004959950000      12.015040000000
       106    1        9.912000000000       6.007500000000       0.000000000000
       107    1        9.912000000000       4.004959950000       2.002880000000
       108    1        9.912000000000       6.007500000000       4.005120000000
       109    1        9.912000000000       4.004959950000       6.008000000000
       110    1        9.912000000000       6.007500000000       8.009920000000
       111    1        9.912000000000       4.004959950000      10.011840000000
       112    1        9.912000000000       6.007500000000      12.015040000000
       113    1        0.000000000000       8.010040050000       0.000000000000
       114    1        0.000000000000      10.012459950000       2.002880000000
       115    1        0.000000000000       8.010040050000       4.005120000000
       116    1        0.000000000000      10.012459950000       6.008000000000
       117    1        0.000000000000       8.010040050000       8.009920000000
       118    1        0.000000000000      10.012459950000      10.011840000000
       119    1        0.000000000000       8.010040050000      12.015040000000
       120    1        1.416000000000      10.012459950000       0.000000000000
       121    1        1.416000000000       8.010040050000       2.002880000000
       122    1        1.416000000000      10.012459950000       4.005120000000
       123    1        1.416000000000       8.010040050000       6.008000000000
       124    1        1.416000000000      10.012459950000       8.009920000000
       125    1        1.416000000000       8.010040050000      10.011840000000
       126    1        1.416000000000      10.012459950000      12.015040000000
       127    1        2.832000000000       8.010040050000       0.000000000000
       128    1        2.832000000000      10.012459950000       2.002880000000
       129    1        2.832000000000       8.010040050000       4.005120000000
       130    1        2.832000000000      10.012459950000       6.008000000000
       131    1        2.832000000000       8.010040050000       8.009920000000
       132    1        2.832000000000      10.012459950000      10.011840000000
       133    1        2.832000000000       8.010040050000      12.015040000000
       134    1        4.248000000000      10.012459950000       0.000000000000
       135    1        4.248000000000       8.010040050000       2.002880000000
       136    1        4.248000000000      10.012459950000       4.005120000000
       137    1        4.248000000000       8.010040050000       6.008000000000
       138    1        4.248000000000      10.012459950000       8.009920000000
       139    1        4.248000000000       8.010040050000      10.011840000000
       140    1        4.248000000000      10.012459950000      12.015040000000
       141    1        5.664000000000       8.010040050000       0.000000000000
       142    1        5.664000000000      10.012459950000       2.002880000000
       143    1        5.664000000000       8.010040050000       4.005120000000
       144    1        5.664000000000      10.012459950000       6.008000000000
       145    1        5.664000000000       8.010040050000       8.009920000000
       146    1        5.664000000000      10.012459950000      10.011840000000
       147    1        5.664000000000       8.010040050000      12.015040000000
       148    1        7.080000000000      10.012459950000       0.000000000000
       149    1        7.080000000000       8.010040050000       2.002880000000
       150    1        7.080000000000      10.012459950000       4.005120000000
       151    1        7.080000000000       8.010040050000       6.008000000000
       152    1        7.080000000000      10.012459950000       8.009920000000
       153    1        7.080000000000       8.010040050000      10.011840000000
       154    1        7.080000000000      10.012459950000      12.015040000000
       155    1        8.496000000000       8.010040050000       0.000000000000
       156    1        8.496000000000      10.012459950000       2.002880000000
       157    1        8.496000000000       8.010040050000       4.005120000000
       158    1        8.496000000000      10.012459950000       6.008000000000
       159    1        8.496000000000       8.010040050000       8.009920000000
       160    1        8.496000000000      10.012459950000      10.011840000000
       161    1        8.496000000000       8.010040050000      12.015040000000
       162    1        9.912000000000      10.012459950000       0.000000000000
       163    1        9.912000000000       8.010040050000       2.002880000000
       164    1        9.912000000000      10.012459950000       4.005120000000
       165    1        9.912000000000       8.010040050000       6.008000000000
       166    1        9.912000000000      10.012459950000       8.009920000000
       167    1        9.912000000000       8.010040050000      10.011840000000
       168    1        9.912000000000      10.012459950000      12.015040000000
       169    2        4.089861120000       3.279854700000      15.489280000000
       170    2        9.787165440000       6.538082400000      15.210560000000
       171    2        6.806768640000       2.583825750000      15.213440000000
       172    2        0.618282240000       5.051586600000      16.504640000000
       173    2        5.873794560000       0.127238850000      27.198720000000
       174    2        7.126558080000       1.788913350000      22.886080000000
       175    2        6.656106240000       4.902240150000      20.512320000000
       176    2        4.497442560000       5.852506500000      22.698240000000
       177    2        3.765427200000      11.182480650000      18.463360000000
       178    2        4.740881280000       4.627577250000      18.130560000000
       179    2        2.651544960000       9.307539900000      20.404480000000
       180    2        8.141320320000       4.211978400000      17.534720000000
       181    2        9.706170240000       3.171118950000      26.040320000000
       182    2        6.304371840000       2.511735750000      18.142400000000
       183    2        3.634588800000       4.420078200000      20.523200000000
       184    2        5.339679360000       7.939992600000      21.051200000000
       185    2        1.401726720000       5.457573450000      19.496000000000
       186    2        3.444504960000       4.520403450000      24.997440000000
       187    2        6.213294720000       9.484400700000      26.815680000000
       188    2        0.794545920000       8.155061100000      22.644480000000
       189    2        8.566007040000      10.068209550000      25.854400000000
       190    2        3.433290240000       0.039649500000      24.594240000000
       191    2        5.597617920000       6.806497500000      16.582720000000
       192    2       10.185344640000      11.247601950000      17.755520000000
       193    2        0.964126080000       9.126594000000      17.873600000000
       194    2        1.473546240000       2.646544050000      16.828480000000
       195    2        6.885158400000       7.862375700000      24.345600000000
       196    2        4.444993920000       2.172792600000      23.350400000000
       197    2        3.167308800000       1.648698300000      20.787520000000
       198    2       10.200637440000       5.581448100000      24.170560000000
       199    2        0.859002240000       2.740741650000      20.389440000000
       200    2        1.275532800000      11.409444000000      21.998720000000
       201    2        9.693482880000       6.942987900000      18.484480000000
       202    2        0.900915840000       7.075993950000      25.542400000000
       203    2        5.975859840000       8.661733650000      18.420480000000
       204    2        5.504388480000       0.592459650000      20.030720000000
       205    2        7.797062400000       6.446648250000      22.281280000000
       206    2        4.588632960000       9.186789150000      23.464640000000
       207    2        9.366103680000       9.862632900000      19.926400000000
       208    2        9.330760320000       0.673080300000      15.404480000000
       209    2        2.819199360000       6.205867650000      15.367360000000
       210    2        9.275479680000       9.081898200000      16.358720000000
       211    2        0.422534400000       9.488966400000      15.223040000000
       212    2       11.297301120000       3.173161500000      23.071360000000
       213    2       10.356284160000       2.499360300000      18.171200000000
       214    2       10.741436160000       6.491824650000      20.906240000000
       215    2        8.980611840000       3.387989700000      21.154880000000
       216    2        1.063925760000      12.012476850000      19.102400000000
       217    2        3.370080000000      11.912151600000      15.925760000000
       218    2        3.511113600000       9.076491450000      27.208320000000
       219    2        0.317523840000      10.110021750000      24.363520000000
       220    2        6.779015040000      11.120002650000      23.544320000000
       221    2        9.457633920000      10.670401350000      22.959360000000
       222    2        1.591584000000       2.444571900000      26.451520000000
       223    2        0.519615360000      11.947475700000      26.785280000000
       224    2        7.460620800000       5.821147350000      26.173440000000
       225    3        3.804395520000       3.787128000000      16.350400000000
       226    3        9.518805120000       7.508293650000      15.500480000000
       227    3        0.425139840000       2.955329550000      22.127360000000
       228    3        0.083600640000       2.324542050000      23.639680000000
       229    3        7.577978880000       2.685592800000      22.591360000000
       230    3        6.150084480000       2.080036800000      23.177600000000
       231    3        7.469909760000       4.295362500000      20.250240000000
       232    3        5.891239680000       4.228078500000      20.637440000000
       233    3        3.880179840000       5.602714650000      23.513280000000
       234    3        4.135512960000       5.412637350000      21.815360000000
       235    3        3.094809600000      10.724108400000      19.139520000000
       236    3        4.416787200000      11.802694950000      19.054400000000
       237    3        5.428264320000       3.820529700000      18.132160000000
       238    3        4.363432320000       4.672152900000      19.115520000000
       239    3        1.997919360000       8.696216700000      20.931840000000
       240    3        3.623600640000       8.893743300000      20.507200000000
       241    3        8.242026240000       4.649324400000      16.587840000000
       242    3        8.950252800000       3.516189750000      17.584320000000
       243    3       10.103896320000       3.896584650000      25.395200000000
       244    3        8.667392640000       3.184816050000      26.064640000000
       245    3        7.145022720000       3.117652200000      17.858240000000
       246    3        6.173533440000       2.105628750000      17.197120000000
       247    3        2.880936960000       4.978655550000      20.002560000000
       248    3        3.290670720000       3.407093550000      20.558400000000
       249    3        6.368828160000       7.809269400000      20.952000000000
       250    3        5.088764160000       7.073951400000      21.615680000000
       251    3        0.730429440000       5.942498850000      20.164480000000
       252    3        0.859908480000       5.603435550000      18.619200000000
       253    3        3.691115520000       4.743401850000      26.022400000000
       254    3        2.484910080000       4.138686900000      25.112320000000
       255    3        7.028004480000       9.875488950000      26.230080000000
       256    3        6.455260800000       8.466489900000      26.752960000000
       257    3        0.378921600000       8.936877150000      23.230400000000
       258    3        0.470225280000       7.375648050000      23.266560000000
       259    3        8.208042240000      10.745495100000      25.147520000000
       260    3        8.543577600000       9.138969450000      25.377280000000
       261    3        5.383065600000       6.020115750000      17.256320000000
       262    3        5.696284800000       7.678305900000      17.205440000000
       263    3        9.691217280000      11.875986450000      17.041600000000
       264    3       11.096455680000      11.715586200000      18.073600000000
       265    3        1.069023360000       8.527405950000      18.740480000000
       266    3        1.403086080000      10.060399800000      17.985280000000
       267    3        1.666915200000       2.480136300000      15.802560000000
       268    3        0.970809600000       3.576505050000      16.885440000000
       269    3        5.972574720000       8.297198550000      24.109440000000
       270    3        7.323552000000       7.383818250000      23.494720000000
       271    3        3.932628480000       1.514130300000      24.007360000000
       272    3        4.327409280000       3.158743500000      23.756800000000
       273    3        4.105040640000       1.242591300000      20.393600000000
       274    3        3.247624320000       1.740613050000      21.844800000000
       275    3       10.734752640000       4.849494300000      23.616640000000
       276    3       10.858567680000       6.032851650000      24.861440000000
       277    3        1.692516480000       2.243080350000      20.815360000000
       278    3        1.022352000000       3.676229550000      19.979200000000
       279    3        1.672126080000      10.492339050000      21.583360000000
       280    3        0.661668480000      11.026405800000      22.796800000000
       281    3        8.859628800000       6.376841100000      18.751680000000
       282    3        9.425915520000       7.316414100000      17.523520000000
       283    3        1.488612480000       6.779944350000      26.363200000000
       284    3        0.638106240000       8.038275300000      25.731520000000
       285    3        5.427924480000       9.541832400000      18.578560000000
       286    3        5.537692800000       7.984327950000      19.100800000000
       287    3        6.219638400000       1.232859150000      19.594240000000
       288    3        5.894751360000       0.303018300000      20.943680000000
       289    3        7.446120960000       5.737282650000      21.561280000000
       290    3        8.834707200000       6.272550900000      22.369280000000
       291    3        4.815532800000       8.798584500000      22.503360000000
       292    3        3.858656640000       8.539420950000      23.849280000000
       293    3        8.895991680000       9.166003200000      19.300480000000
       294    3        9.829645440000      10.497265200000      19.196480000000
       295    3        2.972353920000       7.197585750000      15.238400000000
       296    3        3.621335040000       5.801322600000      15.893440000000
       297    3        8.763793920000       9.589171500000      15.590400000000
       298    3        9.549390720000       9.811569150000      17.101120000000
       299    3        1.662723840000       0.865800900000      18.934400000000
       300    3        1.247665920000       9.140771700000      15.780800000000
       301    3       11.158759680000       2.234549700000      17.513600000000
       302    3       10.832853120000       2.736296100000      19.079360000000
       303    3       11.207243520000       7.251653250000      21.475840000000
       304    3        9.991975680000       7.039828800000      20.433280000000
       305    3        9.748423680000       3.357591750000      21.823360000000
       306    3        9.435657600000       2.846713950000      20.372480000000
       307    3        0.559829760000      10.624624200000      25.227200000000
       308    3        5.786908800000      10.782861750000      23.685440000000
       309    3        8.453746560000      11.063171700000      23.078720000000
       310    3        9.490824960000      10.426977450000      21.914240000000
       311    3       10.634726400000      10.357050150000      24.053440000000
       312    3        0.670617600000       2.956891500000      26.513600000000
       313    3        1.464257280000       1.429184250000      26.205760000000
       314    3        0.521088000000      10.894721400000      26.982400000000
       315    3        6.746163840000       5.855149800000      26.936320000000
       316    3        7.326950400000       6.581937150000      25.469440000000
       317    3       10.897196160000       6.538082400000      15.210560000000
       318    3        6.436796160000       3.323829600000      15.953280000000
       319    3        7.916799360000       2.583825750000      15.213440000000
       320    3        3.141820800000       9.819018450000      27.748160000000
       321    3        4.621144320000       9.076491450000      27.208320000000
       322    3        8.960787840000       1.413084150000      16.144640000000
       323    3       10.440791040000       0.673080300000      15.404480000000
       324    3        5.199891840000       3.279854700000      15.489280000000
       325    3        3.000107520000       0.637155450000      16.665920000000
       326    3        4.480110720000      11.912151600000      15.925760000000
       327    3        0.052561920000      10.228970250000      15.963200000000
       328    3        5.507673600000       0.886466700000      27.198720000000
       329    3        6.983825280000       0.127238850000      27.198720000000
       330    3        0.248309760000       5.791590450000      17.244480000000
       331    3        1.728312960000       5.051586600000      16.504640000000
       332    3        0.149642880000       0.672479550000      27.524480000000
       333    3        3.063317760000       0.779653350000      25.334080000000
       334    3        4.543320960000       0.039649500000      24.594240000000
       335    3        2.173956480000      12.012476850000      19.102400000000
       336    3        6.409042560000      11.860006500000      24.284800000000
       337    3        5.664000000000       6.007500000000      13.000000000000
       338    3        5.827236480000       6.589026000000      13.000000000000
       339    4        3.851180160000       7.997063850000      25.345280000000
