LAMMPS (2 Aug 2023)
OMP_NUM_THREADS environment is not set. Defaulting to 1 thread. (src/comm.cpp:98)
  using 1 OpenMP thread(s) per MPI task
Loaded 1 plugins from /work/home/baoergen22b/apprepo/deepmd/v2.2.9-dtk23.10/app/lib/deepmd_lmp
package gpu 4
# system
units        metal
dimension    3
atom_style   atomic
boundary     p p f

# 设置原子映射
atom_modify map array

# initial stucture
read_data POSCAR.lmp
Reading data file ...
  orthogonal box = (0 0 0) to (11.328 12.015 32)
  1 by 1 by 4 MPI processor grid
  reading atoms ...
  339 atoms
  read_data CPU = 0.026 seconds
mass      1 55.845
mass      2 15.999
mass      3 1.008
mass      4  35.450

# potential
pair_style deepmd graph-compress.pb
Summary of lammps deepmd module ...
  >>> Info of deepmd-kit:
  installed to:       /work/home/wys974137909/shangcheng/deepmd-kit/20240715/deepmd-kit_v2.2.9/install
  source:             v2.2.9
  source branch:      HEAD
  source commit:      be43748
  source commit at:   2024-02-04 13:44:12 +0800
  support model ver.: 1.1 
  build variant:      rocm
  build with tf inc:  /work/home/wys974137909/shangcheng/miniconda3/envs/deepmd-kit-v2.2.9/lib/python3.8/site-packages/tensorflow/include;/work/home/wys974137909/shangcheng/miniconda3/envs/deepmd-kit-v2.2.9/lib/python3.8/site-packages/tensorflow/include
  build with tf lib:  /work/home/wys974137909/shangcheng/miniconda3/envs/deepmd-kit-v2.2.9/lib/python3.8/site-packages/tensorflow/lib/libtensorflow_cc.so
  set tf intra_op_parallelism_threads: 0
  set tf inter_op_parallelism_threads: 0
  >>> Info of lammps module:
  use deepmd-kit at:  /work/home/wys974137909/shangcheng/deepmd-kit/20240715/deepmd-kit_v2.2.9/install
  source:             v2.2.9
  source branch:      HEAD
  source commit:      be43748
  source commit at:   2024-02-04 13:44:12 +0800
  build float prec:   double
  build with tf inc:  /work/home/wys974137909/shangcheng/miniconda3/envs/deepmd-kit-v2.2.9/lib/python3.8/site-packages/tensorflow/include;/work/home/wys974137909/shangcheng/miniconda3/envs/deepmd-kit-v2.2.9/lib/python3.8/site-packages/tensorflow/include
  build with tf lib:  /work/home/wys974137909/shangcheng/miniconda3/envs/deepmd-kit-v2.2.9/lib/python3.8/site-packages/tensorflow/lib/libtensorflow_cc.so
pair_coeff * *

# 固定原子受力、速度为 0
group fixed id 1:168
168 atoms in group fixed
group mobile subtract all fixed
171 atoms in group mobile
fix freeze_fixed fixed setforce 0.0 0.0 0.0
velocity fixed set 0 0 0

# 在z=27处添加硬性反射墙
fix wall1 mobile wall/reflect zhi 27.2

# 计算mobile组的温度
compute mTemp mobile temp
thermo 50
thermo_style custom step temp c_mTemp pe ke etotal press
velocity mobile  create 298.15 12345 mom yes rot yes

#fix ensemble mobile  nvt temp 298.15 298.15 1
#timestep 0.0005
#run 15000
#unfix ensemble        # 结束预平衡的NVT

fix ensemble mobile  nvt temp 298.15 298.15 1
fix meta  all colvars pmf.in tstat ensemble
timestep 0.0005
dump trace all custom 10 md.lammpstrj id type x y z
run 200000

CITE-CITE-CITE-CITE-CITE-CITE-CITE-CITE-CITE-CITE-CITE-CITE-CITE

Your simulation uses code contributions which should be cited:

- GPU package (short-range, long-range and three-body potentials): doi:10.1016/j.cpc.2010.12.021, doi:10.1016/j.cpc.2011.10.012, doi:10.1016/j.cpc.2013.08.002, doi:10.1016/j.commatsci.2014.10.068, doi:10.1016/j.cpc.2016.10.020, doi:10.3233/APC200086

@Article{Brown11,
 author = {W. M. Brown and P. Wang and S. J. Plimpton and A. N. Tharrington},
 title = {Implementing Molecular Dynamics on Hybrid High Performance Computers---Short Range Forces},
 journal = {Comput.\ Phys.\ Commun.},
 year =    2011,
 volume =  182,
 pages =   {898--911},
 doi =     {10.1016/j.cpc.2010.12.021}
}

@Article{Brown12,
 author = {W. M. Brown and A. Kohlmeyer and S. J. Plimpton and A. N. Tharrington},
 title = {Implementing Molecular Dynamics on Hybrid High Performance Computers - Particle-Particle Particle-Mesh},
 journal = {Comput.\ Phys.\ Commun.},
 year =    2012,
 volume =  183,
 doi =     {10.1016/j.cpc.2011.10.012},
 pages =   {449--459}
}

@Article{Brown13,
 author = {W. M. Brown and Y. Masako},
 title = {Implementing Molecular Dynamics on Hybrid High Performance Computers---Three-Body Potentials},
 journal = {Comput.\ Phys.\ Commun.},
 year =    2013,
 volume =  184,
 pages =   {2785--2793},
 doi =     {10.1016/j.cpc.2013.08.002},
}

@Article{Trung15,
 author = {T. D. Nguyen and S. J. Plimpton},
 title = {Accelerating Dissipative Particle Dynamics Simulations for Soft Matter Systems},
 journal = {Comput.\ Mater.\ Sci.},
 year =    2015,
 doi =     {10.1016/j.commatsci.2014.10.068},
 volume =  100,
 pages =   {173--180}
}

@Article{Trung17,
 author = {T. D. Nguyen},
 title = {{GPU}-Accelerated {T}ersoff Potentials for Massively Parallel
    Molecular Dynamics Simulations},
 journal = {Comput.\ Phys.\ Commun.},
 year =    2017,
 doi =     {10.1016/j.cpc.2016.10.020},
 volume =  212,
 pages =   {113--122}
}

@inproceedings{Nikolskiy19,
 author = {V. Nikolskiy and V. Stegailov},
 title = {{GPU} Acceleration of Four-Site Water Models in {LAMMPS}},
 booktitle = {Proceedings of the International Conference on Parallel
    Computing (ParCo 2019), Prague, Czech Republic},
 doi =     {10.3233/APC200086},
 year =    2019
}

- USER-DEEPMD package:

@article{Wang_ComputPhysCommun_2018_v228_p178,
  author = {Wang, Han and Zhang, Linfeng and Han, Jiequn and E, Weinan},
  doi = {10.1016/j.cpc.2018.03.016},
  url = {https://doi.org/10.1016/j.cpc.2018.03.016},
  year = 2018,
  month = {jul},
  publisher = {Elsevier {BV}},
  volume = 228,
  journal = {Comput. Phys. Commun.},
  title = {{DeePMD-kit: A deep learning package for many-body potential energy representation and molecular dynamics}},
  pages = {178--184}
}
@misc{Zeng_JChemPhys_2023_v159_p054801,
  title  = {{DeePMD-kit v2: A software package for deep potential models}},
  author =   {Jinzhe Zeng and Duo Zhang and Denghui Lu and Pinghui Mo and Zeyu Li
         and Yixiao Chen and Mari{\'a}n Rynik and Li'ang Huang and Ziyao Li and 
         Shaochen Shi and Yingze Wang and Haotian Ye and Ping Tuo and Jiabin
         Yang and Ye Ding and Yifan Li and Davide Tisi and Qiyu Zeng and Han 
         Bao and Yu Xia and Jiameng Huang and Koki Muraoka and Yibo Wang and 
         Junhan Chang and Fengbo Yuan and Sigbj{\o}rn L{\o}land Bore and Chun
         Cai and Yinnian Lin and Bo Wang and Jiayan Xu and Jia-Xin Zhu and 
         Chenxing Luo and Yuzhi Zhang and Rhys E A Goodall and Wenshuo Liang
         and Anurag Kumar Singh and Sikai Yao and Jingchao Zhang and Renata
         Wentzcovitch and Jiequn Han and Jie Liu and Weile Jia and Darrin M
         York and Weinan E and Roberto Car and Linfeng Zhang and Han Wang},
  journal =  {J. Chem. Phys.},
  volume =   159,
  issue =    5,  
  year =    2023,
  pages  =   054801,
  doi =      {10.1063/5.0155600},
}

CITE-CITE-CITE-CITE-CITE-CITE-CITE-CITE-CITE-CITE-CITE-CITE-CITE

Generated 0 of 6 mixed pair_coeff terms from geometric mixing rule
Neighbor list info ...
  update: every = 1 steps, delay = 0 steps, check = yes
  max neighbors/atom: 2000, page size: 100000
  master list distance cutoff = 8
  ghost atom cutoff = 8
  binsize = 4, bins = 3 4 8
  1 neighbor lists, perpetual/occasional/extra = 1 0 0
  (1) pair deepmd, perpetual
      attributes: full, newton on
      pair build: full/bin/atomonly
      stencil: full/bin/3d
      bin: standard
colvars: Creating proxy instance
colvars: ----------------------------------------------------------------------
colvars: Initializing the collective variables module, version 2023-05-01.
colvars: Please cite Fiorin et al, Mol Phys 2013:
colvars:   https://doi.org/10.1080/00268976.2013.813594
colvars: as well as all other papers listed below for individual features used.
colvars: This version was built with the C++11 standard or higher.
colvars: Using LAMMPS interface, version "2023-04-12".
colvars: ----------------------------------------------------------------------
colvars: Reading new configuration from file "pmf.in":
colvars: # units = "" [default]
colvars: # smp = on [default]
colvars: # colvarsTrajFrequency = 100 [default]
colvars: # colvarsRestartFrequency = 0 [default]
colvars: # scriptedColvarForces = off [default]
colvars: # scriptingAfterBiases = off [default]
colvars: ----------------------------------------------------------------------
colvars:   Initializing a new collective variable.
colvars:   # name = "d"
colvars:   Initializing a new "distance" component.
colvars:     # name = "" [default]
colvars:     # componentCoeff = 1 [default]
colvars:     # componentExp = 1 [default]
colvars:     # period = 0 [default]
colvars:     # wrapAround = 0 [default]
colvars:     # forceNoPBC = off [default]
colvars:     # scalable = on [default]
colvars:       Initializing atom group "group1".
colvars:       # name = "" [default]
colvars:       # centerToOrigin = off [default]
colvars:       # centerToReference = off [default]
colvars:       # rotateToReference = off [default]
colvars:       # atomsOfGroup = "" [default]
colvars:       # indexGroup = "" [default]
colvars:       # psfSegID =  [default]
colvars:       # atomsFile = "" [default]
colvars:       # dummyAtom = ( 0 , 0 , 0 ) [default]
colvars:       # enableFitGradients = on [default]
colvars:       # printAtomIDs = off [default]
colvars:       Atom group "group1" defined with 1 atoms requested.
colvars:       Initializing atom group "group2".
colvars:       # name = "" [default]
colvars:       # centerToOrigin = off [default]
colvars:       # centerToReference = off [default]
colvars:       # rotateToReference = off [default]
colvars:       # atomsOfGroup = "" [default]
colvars:       # indexGroup = "" [default]
colvars:       # psfSegID =  [default]
colvars:       # atomsFile = "" [default]
colvars:       # dummyAtom = ( 0 , 0 , 0 ) [default]
colvars:       # enableFitGradients = on [default]
colvars:       # printAtomIDs = off [default]
colvars:       Atom group "group2" defined with 1 atoms requested.
colvars:     # oneSiteSystemForce = off [default]
colvars:     # oneSiteTotalForce = off [default]
colvars:   All components initialized.
colvars:   # timeStepFactor = 1 [default]
colvars:   # width = 0.02
colvars:   # lowerBoundary = 0.5
colvars:   # upperBoundary = 2.2
colvars:   # hardLowerBoundary = on
colvars:   # hardUpperBoundary = on
colvars:   # expandBoundaries = off [default]
colvars:   # extendedLagrangian = off [default]
colvars:   # outputValue = on [default]
colvars:   # outputVelocity = off [default]
colvars:   # outputTotalForce = on
colvars:   # outputAppliedForce = on
colvars:   # subtractAppliedForce = off [default]
colvars:   # runAve = off [default]
colvars:   # corrFunc = off [default]
colvars: ----------------------------------------------------------------------
colvars: Collective variables initialized, 1 in total.
colvars: ----------------------------------------------------------------------
colvars:   Initializing a new "metadynamics" instance.
colvars:   # name = "metadynamics1" [default]
colvars:   # colvars = { d }
colvars:   # stepZeroData = off [default]
colvars:   # outputEnergy = off [default]
colvars:   # outputFreq = 0 [default]
colvars:   # timeStepFactor = 1 [default]
colvars:   # writeTISamples = on
colvars:   # writeTIPMF = on
colvars:   # hillWeight = 0.2
colvars:   # newHillFrequency = 500
colvars:   # gaussianSigmas =  [default]
colvars:   # hillWidth = 1
colvars:   Half-widths of the Gaussian hills (sigma's):
colvars:   d: 0.01
colvars:   # multipleReplicas = off [default]
colvars:   # useGrids = on [default]
colvars:   # gridsUpdateFrequency = 500 [default]
colvars:   # rebinGrids = off [default]
colvars:   # writeFreeEnergyFile = on [default]
colvars:   # keepHills = off [default]
colvars:   # keepFreeEnergyFiles = off [default]
colvars:   # writeHillsTrajectory = off [default]
colvars:   # wellTempered = off [default]
colvars:   # biasTemperature = 800
colvars:   # ebMeta = off [default]
colvars: ----------------------------------------------------------------------
colvars: Collective variables biases initialized, 1 in total.
colvars: ----------------------------------------------------------------------
colvars: Collective variables module (re)initialized.
colvars: ----------------------------------------------------------------------
colvars: Re-initialized atom group for variable "d":0/0. 1 atoms: total mass = 1.008, total charge = 0.
colvars: Re-initialized atom group for variable "d":0/1. 1 atoms: total mass = 1.008, total charge = 4.61768e-310.
colvars: The restart output state file will be "rest.colvars.state".
colvars: The final output state file will be "out.colvars.state".
Per MPI rank memory allocation (min/avg/max) = 3.124 | 3.146 | 3.16 Mbytes
   Step          Temp         c_mTemp         PotEng         KinEng         TotEng         Press     
         0   149.9571       298.15        -2247.8234      6.5516151     -2241.2718     -14783.352    
        50   130.59388      259.65136     -2246.9748      5.7056372     -2241.2691     -14750.29     
       100   136.00624      270.4124      -2247.2119      5.9421028     -2241.2698     -12293.107    
       150   139.24855      276.85889     -2247.3517      6.0837594     -2241.2679     -12463.858    
       200   139.16439      276.69154     -2247.3434      6.0800821     -2241.2633     -11075.272    
       250   143.05921      284.43537     -2247.5105      6.2502468     -2241.2602     -15547.657    
       300   149.27765      296.79909     -2247.7879      6.5219298     -2241.2659     -11860.766    
       350   142.11711      282.56225     -2247.4722      6.2090865     -2241.2631     -13287.112    
       400   129.52687      257.52989     -2246.9093      5.6590198     -2241.2503     -13085.54     
       450   142.19171      282.71058     -2247.4635      6.2123457     -2241.2512     -12825.463    
       500   144.61573      287.5301      -2247.5683      6.3182509     -2241.25       -11131.133    
       550   134.05437      266.53163     -2246.9736      5.8568259     -2241.1168     -13853.601    
       600   141.10236      280.54469     -2247.2413      6.1647521     -2241.0765     -15870.631    
       650   147.26652      292.80049     -2247.4244      6.4340636     -2240.9903     -14057.632    
       700   140.32321      278.99556     -2247.0439      6.130711      -2240.9132     -11776.719    
       750   143.18063      284.67677     -2247.1075      6.2555514     -2240.8519     -13394.808    
       800   160.65292      319.41581     -2247.7379      7.0189147     -2240.719      -15100.155    
       850   162.92479      323.93282     -2247.8293      7.1181725     -2240.7111     -12429.917    
       900   136.97729      272.34308     -2246.6657      5.9845281     -2240.6811     -13787.51     
       950   151.78626      301.78679     -2247.3112      6.6315307     -2240.6797     -13515.228    
      1000   146.8398       291.95207     -2247.0924      6.4154204     -2240.6769     -12061.151    
      1050   147.20091      292.67004     -2246.9681      6.4311971     -2240.5369     -13737.065    
      1100   146.26231      290.80388     -2246.972       6.3901898     -2240.5818     -14782.535    
      1150   148.81389      295.87702     -2246.8832      6.5016681     -2240.3816     -13184.187    
      1200   146.2118       290.70346     -2246.7109      6.3879832     -2240.3229     -11564.938    
      1250   164.5666       327.19713     -2247.5126      7.1899032     -2240.3227     -14842.749    
      1300   180.19976      358.27953     -2247.3991      7.8729148     -2239.5262     -10337.582    
      1350   159.69401      317.50927     -2246.4913      6.9770199     -2239.5143     -10724.333    
      1400   149.71238      297.66344     -2245.3143      6.5409233     -2238.7734     -11460.601    
      1450   174.9327       347.80736     -2246.4168      7.6427971     -2238.774      -13045.007    
      1500   173.41205      344.78395     -2246.3452      7.5763601     -2238.7689     -12273.904    
      1550   165.68672      329.42419     -2246.0046      7.2388412     -2238.7657     -12536.786    
      1600   158.88264      315.89608     -2245.702       6.9415714     -2238.7604     -8702.204     
      1650   161.14566      320.39548     -2245.7988      7.0404423     -2238.7584     -14093.812    
      1700   154.91788      308.0132      -2245.5231      6.7683512     -2238.7548     -14355.689    
      1750   162.88219      323.84812     -2245.8801      7.1163112     -2238.7638     -13301.88     
      1800   167.0606       332.15578     -2246.0558      7.2988656     -2238.757      -12482.282    
      1850   157.76344      313.67084     -2245.6509      6.8926735     -2238.7582     -13121.705    
      1900   171.28329      340.55148     -2246.2538      7.4833546     -2238.7704     -14265.161    
      1950   158.03781      314.21635     -2245.6799      6.9046607     -2238.7752     -13994.124    
      2000   158.9249       315.9801      -2245.7238      6.9434178     -2238.7804     -13663.081    
      2050   158.31772      314.77287     -2245.6995      6.9168898     -2238.7826     -15479.426    
      2100   157.20594      312.5624      -2245.6517      6.8683163     -2238.7834     -14526.992    
      2150   150.44059      299.11129     -2245.3659      6.5727386     -2238.7932     -14819.086    
      2200   157.10421      312.36014     -2245.6685      6.8638719     -2238.8046     -14548.451    
      2250   163.488        325.05261     -2245.9554      7.1427792     -2238.8126     -13617.482    
      2300   148.47192      295.19711     -2245.3002      6.4867277     -2238.8135     -14705.867    
      2350   157.11258      312.37677     -2245.6924      6.8642374     -2238.8281     -13394.093    
      2400   169.61354      337.23162     -2246.2507      7.4104034     -2238.8403     -13211.987    
      2450   155.04349      308.26293     -2245.6181      6.7738389     -2238.8443     -14971.729    
      2500   167.15718      332.3478      -2246.1623      7.3030852     -2238.8592     -14818.64     
      2550   156.18065      310.52389     -2245.6938      6.8235217     -2238.8702     -13442.901    
      2600   153.43882      305.07247     -2245.5824      6.703731      -2238.8787     -14385.852    
      2650   171.41307      340.80951     -2246.3888      7.4890248     -2238.8998     -14377.929    
      2700   151.6845       301.58448     -2245.5335      6.6270852     -2238.9064     -13786.952    
      2750   161.70591      321.5094      -2245.9914      7.0649197     -2238.9265     -13260.958    
      2800   144.40318      287.10751     -2245.2499      6.3089648     -2238.941      -13578.505    
      2850   164.71237      327.48694     -2246.159       7.1962716     -2238.9627     -14911.299    
      2900   171.78838      341.55572     -2246.4911      7.5054222     -2238.9856     -15134.708    
      2950   170.04811      338.09566     -2246.4361      7.42939       -2239.0067     -10542.986    
      3000   168.72246      335.45996     -2246.4017      7.3714725     -2239.0302     -14831.649    
      3050   166.79795      331.63358     -2246.3399      7.2873907     -2239.0525     -12501.146    
      3100   150.29376      298.81937     -2245.641       6.5663239     -2239.0747     -14334.075    
      3150   143.37713      285.06748     -2245.3714      6.2641367     -2239.1073     -13126.052    
      3200   156.29418      310.7496      -2245.9226      6.8284816     -2239.0941     -13649.471    
      3250   153.89151      305.97253     -2245.8898      6.7235091     -2239.1662     -12582.653    
      3300   150.76476      299.75581     -2245.7194      6.5869015     -2239.1325     -14104.608    
      3350   183.45941      364.76047     -2246.5784      8.0153285     -2238.5631     -14014.978    
      3400   174.05416      346.06061     -2246.0342      7.6044137     -2238.4298     -12965.379    
      3450   187.82802      373.4463      -2246.6308      8.2061929     -2238.4246     -14250.176    
      3500   170.77797      339.54678     -2245.8524      7.4612772     -2238.3911     -10938.611    
      3550   170.41647      338.82805     -2244.3343      7.4454836     -2236.8889     -17520.398    
      3600   179.70879      357.30335     -2244.9866      7.8514642     -2237.1352     -14292.789    
      3650   172.51092      342.9923      -2243.9389      7.53699       -2236.4019     -16123.374    
      3700   193.3514       384.42808     -2245.2651      8.4475089     -2236.8176     -9085.0771    
      3750   190.69159      379.13974     -2245.317       8.3313019     -2236.9857     -15073.639    
      3800   175.89933      349.72927     -2244.7364      7.6850295     -2237.0514     -12467.155    
      3850   174.12551      346.20249     -2244.7193      7.6075312     -2237.1118     -12893.681    
      3900   173.82158      345.5982      -2244.7625      7.5942526     -2237.1683     -11988.45     
      3950   171.57228      341.12607     -2244.7218      7.4959808     -2237.2258     -8737.5767    
      4000   183.41778      364.6777      -2245.3052      8.0135097     -2237.2917     -10840.5      
      4050   182.24908      362.35406     -2245.3142      7.9624495     -2237.3518     -13485.921    
      4100   171.59187      341.16501     -2244.8993      7.4968366     -2237.4025     -8505.848     
      4150   186.03614      369.88362     -2245.6088      8.1279058     -2237.4809     -13436.42     
      4200   158.18541      314.50982     -2244.437       6.9111094     -2237.5259     -11660.379    
      4250   162.38248      322.85458     -2244.6781      7.094479      -2237.5837     -13429.686    
      4300   172.2089       342.39182     -2245.1628      7.5237948     -2237.639      -11563.944    
      4350   169.69134      337.38632     -2245.0884      7.4138027     -2237.6746     -13599.02     
      4400   168.478        334.97391     -2245.0879      7.3607919     -2237.7271     -11134.543    
      4450   175.18007      348.2992      -2245.4252      7.6536049     -2237.7716     -14263.051    
      4500   162.46198      323.01265     -2244.903       7.0979525     -2237.805      -13027.901    
      4550   169.55218      337.10962     -2245.2457      7.4077225     -2237.838      -15017.178    
      4600   184.43828      366.70671     -2245.9383      8.0580955     -2237.8802     -13384.599    
      4650   168.70569      335.42661     -2245.2769      7.3707396     -2237.9061     -12679.829    
      4700   169.74288      337.48879     -2245.3569      7.4160544     -2237.9409     -11212.063    
      4750   169.64803      337.30021     -2245.3856      7.4119106     -2237.9737     -12592.293    
      4800   176.0621       350.05289     -2245.6934      7.6921408     -2238.0012     -14164.888    
      4850   162.58664      323.2605      -2245.1267      7.1033988     -2238.0233     -16479.495    
      4900   179.76592      357.41695     -2245.9075      7.8539604     -2238.0535     -14471.05     
      4950   180.33183      358.54211     -2245.9689      7.8786849     -2238.0902     -14282.907    
      5000   167.83872      333.70287     -2245.4418      7.3328618     -2238.109      -12676.264    
      5050   152.47985      303.16582     -2244.797       6.6618337     -2238.1351     -13966.976    
      5100   158.23644      314.61128     -2245.0804      6.9133389     -2238.1671     -12754.968    
      5150   173.97161      345.89649     -2245.8128      7.6008071     -2238.212      -13568.267    
      5200   170.48135      338.95704     -2245.6592      7.448318      -2238.2109     -13690.15     
      5250   156.14521      310.45342     -2245.0633      6.8219732     -2238.2413     -16638.433    
      5300   156.9853       312.12371     -2245.1377      6.8586765     -2238.279      -13015.083    
      5350   144.67931      287.65652     -2244.621       6.3210289     -2238.2999     -14558.137    
      5400   153.87634      305.94237     -2245.046       6.7228464     -2238.3231     -9934.6568    
      5450   176.65896      351.23958     -2246.0737      7.7182174     -2238.3555     -16776.151    
      5500   189.32681      376.42624     -2246.6595      8.2716748     -2238.3878     -13835.018    
      5550   168.04526      334.11352     -2245.7533      7.3418855     -2238.4115     -13257.617    
      5600   155.98256      310.13003     -2245.2536      6.8148669     -2238.4388     -14153.713    
      5650   159.89203      317.90299     -2245.452       6.9856716     -2238.4663     -13511.263    
      5700   151.16301      300.54763     -2245.0939      6.6043012     -2238.4896     -11817.722    
      5750   151.19038      300.60206     -2245.1227      6.6054971     -2238.5172     -12653.991    
      5800   157.60219      313.35023     -2245.4297      6.8856283     -2238.5441     -13309.09     
      5850   175.96184      349.85353     -2246.2567      7.6877601     -2238.5689     -15066.941    
      5900   163.89235      325.85656     -2245.7498      7.1604453     -2238.5894     -12609.213    
      5950   160.22104      318.55714     -2245.62        7.0000461     -2238.62       -12773.041    
      6000   170.4628       338.92015     -2246.0932      7.4475075     -2238.6457     -12845.217    
      6050   164.50114      327.06696     -2245.8599      7.1870429     -2238.6728     -10905.577    
      6100   169.70083      337.40517     -2246.1148      7.4142171     -2238.7005     -12165.85     
      6150   159.03367      316.19636     -2245.6755      6.9481698     -2238.7273     -13070.556    
      6200   161.50558      321.1111      -2245.8131      7.0561675     -2238.7569     -10948.611    
      6250   149.98949      298.2144      -2245.3217      6.5530302     -2238.7687     -14857.772    
      6300   165.2648       328.58531     -2246.0252      7.2204075     -2238.8048     -10120.892    
      6350   163.54084      325.15767     -2245.9775      7.1450877     -2238.8324     -14906.707    
      6400   165.05019      328.1586      -2246.0671      7.2110309     -2238.8561     -13233.391    
      6450   152.11347      302.43738     -2245.5323      6.6458269     -2238.8865     -11240.13     
      6500   156.4288       311.01727     -2245.7509      6.8343633     -2238.9165     -11998.38     
      6550   162.40745      322.90423     -2246.0381      7.0955702     -2238.9426     -16706.243    
      6600   142.76113      283.84272     -2245.2094      6.2372236     -2238.9722     -12022.387    
      6650   140.4531       279.25381     -2245.1433      6.136386      -2239.0069     -12370.227    
      6700   159.81192      317.7437      -2246.0212      6.9821715     -2239.039      -11567.344    
      6750   162.26238      322.61579     -2246.1455      7.0892319     -2239.0563     -13883.078    
      6800   164.51129      327.08716     -2246.2777      7.1874868     -2239.0902     -12359.712    
      6850   151.22555      300.67199     -2245.7248      6.6070338     -2239.1177     -12721.988    
      6900   153.36895      304.93357     -2245.8498      6.7006787     -2239.1491     -11241.712    
      6950   161.01253      320.1308      -2246.2087      7.0346262     -2239.174      -10761.129    
      7000   150.23728      298.70706     -2245.7635      6.563856      -2239.1997     -13796.626    
      7050   148.48068      295.21453     -2245.7139      6.4871104     -2239.2268     -10739.938    
      7100   144.5551       287.40956     -2245.5698      6.3156022     -2239.2542     -12366.034    
      7150   149.98355      298.20259     -2245.8273      6.5527708     -2239.2745     -11957.402    
      7200   138.27059      274.91447     -2245.3462      6.0410323     -2239.3052     -12398.752    
      7250   149.6896       297.61814     -2245.8759      6.5399278     -2239.336      -14487.216    
      7300   149.92154      298.07929     -2245.9108      6.5500614     -2239.3608     -11874.806    
      7350   154.63737      307.45548     -2246.1455      6.7560959     -2239.3894     -14307.829    
      7400   154.14298      306.47252     -2246.1429      6.734496      -2239.4084     -12338.725    
      7450   153.72623      305.64393     -2246.1519      6.7162883     -2239.4356     -10821.495    
      7500   157.70536      313.55537     -2246.355       6.8901361     -2239.4649     -14877.703    
      7550   167.59158      333.2115      -2246.8112      7.3220644     -2239.4891     -12319.546    
      7600   153.89379      305.97707     -2246.2303      6.7236089     -2239.5067     -12729.861    
      7650   154.49898      307.18032     -2246.2823      6.7500493     -2239.5322     -9907.7732    
      7700   158.75302      315.63836     -2246.4921      6.9359082     -2239.5562     -11688.121    
      7750   152.28243      302.7733      -2246.24        6.6532084     -2239.5868     -12460.817    
      7800   157.05514      312.26256     -2246.4753      6.8617277     -2239.6136     -14038.816    
      7850   144.09839      286.5015      -2245.9285      6.2956483     -2239.6329     -11454.731    
      7900   149.72157      297.68172     -2246.1997      6.541325      -2239.6584     -13341.872    
      7950   146.7692       291.81171     -2246.0763      6.412336      -2239.664      -11899.453    
      8000   153.78068      305.75218     -2246.416       6.718667      -2239.6973     -15001.681    
      8050   148.37951      295.01338     -2246.192       6.4826902     -2239.7093     -14089.238    
      8100   142.97707      284.27206     -2245.9723      6.2466582     -2239.7257     -11468.91     
      8150   150.04475      298.32427     -2246.2963      6.5554445     -2239.7409     -13934.289    
      8200   152.73845      303.67997     -2246.4345      6.6731319     -2239.7613     -12783.421    
      8250   157.68035      313.50564     -2246.6791      6.8890433     -2239.7901     -15594.243    
      8300   149.89181      298.02018     -2246.3514      6.5487624     -2239.8026     -15314.202    
      8350   160.28497      318.68424     -2246.8283      7.0028392     -2239.8254     -12438.672    
      8400   151.095        300.41241     -2246.4472      6.6013298     -2239.8459     -16851.283    
      8450   147.15547      292.57969     -2246.299       6.4292119     -2239.8698     -10405.953    
      8500   147.02441      292.31913     -2246.3111      6.4234862     -2239.8876     -14164.77     
      8550   149.69659      297.63205     -2246.4464      6.5402335     -2239.9062     -13647.445    
      8600   150.84643      299.9182      -2246.5168      6.5904698     -2239.9263     -12911.19     
      8650   146.70914      291.69229     -2246.3547      6.4097118     -2239.945      -14982.121    
      8700   160.63405      319.3783      -2246.9822      7.0180904     -2239.9641     -14057.079    
      8750   142.76575      283.85191     -2246.2119      6.2374256     -2239.9745     -15688.426    
      8800   145.4113       289.11187     -2246.3555      6.3530093     -2240.0025     -12530.331    
      8850   150.2602       298.75263     -2246.5825      6.5648575     -2240.0177     -13969.729    
      8900   139.72011      277.79645     -2246.1273      6.1043616     -2240.0229     -15630.447    
      8950   152.74634      303.69566     -2246.7207      6.6734767     -2240.0472     -13358.929    
      9000   145.61714      289.52114     -2246.4218      6.3620026     -2240.0598     -12582.01     
      9050   141.02901      280.39886     -2246.2387      6.1615475     -2240.0771     -13902.197    
      9100   151.83584      301.88538     -2246.7224      6.6336971     -2240.0887     -11462.792    
      9150   149.2654       296.77474     -2246.6191      6.5213947     -2240.0977     -15576.915    
      9200   154.14344      306.47343     -2246.8671      6.734516      -2240.1326     -13352.114    
      9250   147.44737      293.16006     -2246.5797      6.4419649     -2240.1377     -14592.657    
      9300   159.13755      316.4029      -2247.1104      6.9527083     -2240.1577     -10192.215    
      9350   153.12823      304.45496     -2246.8648      6.6901616     -2240.1747     -13491.204    
      9400   150.75035      299.72716     -2246.7787      6.586272      -2240.1925     -11547.957    
      9450   139.60109      277.55981     -2246.3008      6.0991617     -2240.2016     -13280.013    
      9500   143.44485      285.20211     -2246.4814      6.2670952     -2240.2143     -11284.951    
      9550   149.693        297.62491     -2246.7737      6.5400766     -2240.2336     -12558.123    
      9600   133.58937      265.60711     -2246.0764      5.8365103     -2240.2399     -12701.42     
      9650   144.74292      287.78298     -2246.5746      6.3238079     -2240.2507     -12078.226    
      9700   149.41215      297.0665      -2246.7911      6.5278061     -2240.2633     -12385.56     
      9750   147.36181      292.98995     -2246.7168      6.4382269     -2240.2785     -14159.585    
      9800   143.77537      285.85927     -2246.5712      6.2815358     -2240.2897     -13820.199    
      9850   152.9419       304.08448     -2246.9821      6.6820208     -2240.3001     -9978.7876    
      9900   149.11139      296.46852     -2246.8244      6.5146659     -2240.3097     -10910.123    
      9950   143.75882      285.82635     -2246.5988      6.2808125     -2240.318      -14064.817    
     10000   142.7348       283.79038     -2246.5671      6.2360735     -2240.3311     -14276.953    
     10050   139.10147      276.56645     -2246.4205      6.0773334     -2240.3432     -11975.54     
     10100   136.92952      272.24811     -2246.3288      5.9824411     -2240.3463     -18329.846    
     10150   160.95762      320.02162     -2247.3851      7.0322269     -2240.3529     -12896.871    
     10200   152.07303      302.35697     -2246.9963      6.6440599     -2240.3523     -16357.155    
     10250   148.95252      296.15267     -2246.871       6.5077252     -2240.3633     -13282.48     
     10300   148.33043      294.91579     -2246.854       6.4805459     -2240.3734     -14314.032    
     10350   149.23014      296.70463     -2246.9042      6.5198543     -2240.3843     -11091.799    
     10400   151.96366      302.1395      -2247.0343      6.6392814     -2240.395      -13855.928    
     10450   152.80045      303.80324     -2247.0786      6.6758406     -2240.4027     -10233.262    
     10500   158.74609      315.62458     -2247.3451      6.9356054     -2240.4094     -11252.911    
     10550   151.60476      301.42594     -2247.042       6.6236013     -2240.4184     -13991.272    
     10600   149.51368      297.26837     -2246.9578      6.5322419     -2240.4256     -13609.779    
     10650   149.08139      296.40887     -2246.9488      6.5133551     -2240.4354     -10565.052    
     10700   138.99679      276.35833     -2246.5121      6.0727601     -2240.4394     -16673.033    
     10750   137.13433      272.65531     -2246.4409      5.9913891     -2240.4495     -15132.485    
     10800   157.73628      313.61683     -2247.3492      6.8914867     -2240.4577     -16483.435    
     10850   156.51972      311.19804     -2247.3049      6.8383357     -2240.4665     -13326.192    
     10900   160.35758      318.8286      -2247.4839      7.0060112     -2240.4779     -12694.173    
     10950   153.41642      305.02794     -2247.1802      6.7027524     -2240.4774     -15808.858    
     11000   146.1476       290.57581     -2246.874       6.3851781     -2240.4888     -11226.814    
     11050   138.46125      275.29354     -2246.5512      6.0493622     -2240.5018     -13159.353    
     11100   140.57404      279.49426     -2246.6443      6.1416696     -2240.5027     -15366.961    
     11150   134.8504       268.11433     -2246.4004      5.8916046     -2240.5088     -14229.47     
     11200   144.41108      287.12322     -2246.8271      6.30931       -2240.5178     -12589.549    
     11250   132.23186      262.90806     -2246.2983      5.7772008     -2240.5211     -13648.23     
     11300   143.93922      286.18504     -2246.8145      6.2886943     -2240.5258     -14308.54     
     11350   142.15808      282.64372     -2246.7456      6.2108765     -2240.5347     -13290.172    
     11400   138.03994      274.45589     -2246.5687      6.0309553     -2240.5378     -12317.103    
     11450   151.75921      301.73302     -2247.1768      6.6303491     -2240.5464     -14329.388    
     11500   143.01658      284.35062     -2246.7964      6.2483844     -2240.548      -14758.007    
     11550   143.30037      284.91484     -2246.8152      6.2607828     -2240.5544     -12811.209    
     11600   150.88193      299.98878     -2247.1534      6.592021      -2240.5613     -13228.263    
     11650   156.01275      310.19005     -2247.3768      6.8161859     -2240.5606     -12735.146    
     11700   150.92305      300.07054     -2247.1648      6.5938175     -2240.5709     -11687.485    
     11750   158.0513       314.24317     -2247.4778      6.9052501     -2240.5725     -13908.932    
     11800   138.43761      275.24654     -2246.6202      6.0483293     -2240.5719     -11957.182    
     11850   146.39656      291.07081     -2246.968       6.3960553     -2240.5719     -11147.25     
     11900   143.87086      286.04912     -2246.8655      6.2857076     -2240.5798     -12230.07     
     11950   150.97225      300.16835     -2247.1867      6.5959668     -2240.5908     -12860.329    
     12000   147.8588       293.97808     -2247.0509      6.4599403     -2240.591      -11924.273    
     12050   145.29874      288.88809     -2246.9385      6.3480917     -2240.5905     -12742.418    
     12100   145.10957      288.51196     -2246.9323      6.3398266     -2240.5925     -11577.615    
     12150   161.54781      321.19505     -2247.6561      7.0580121     -2240.5981     -14228.677    
     12200   149.92324      298.08269     -2247.1502      6.5501359     -2240.6        -14642.931    
     12250   162.55026      323.18816     -2247.7047      7.1018093     -2240.6029     -12961.099    
     12300   137.33629      273.05686     -2246.6029      6.0002128     -2240.6027     -11684.124    
     12350   160.22089      318.55683     -2247.6139      7.0000394     -2240.6138     -13971.836    
     12400   149.43173      297.10545     -2247.1355      6.5286618     -2240.6069     -10048.635    
     12450   146.30337      290.88553     -2247.0048      6.391984      -2240.6128     -16946.125    
     12500   149.75976      297.75763     -2247.1652      6.5429931     -2240.6222     -11148.192    
     12550   143.89961      286.10628     -2246.9067      6.2869636     -2240.6197     -12662.862    
     12600   148.38533      295.02495     -2247.1119      6.4829446     -2240.6289     -14300.895    
     12650   141.85864      282.04835     -2246.8306      6.1977939     -2240.6329     -12593.684    
     12700   157.81651      313.77635     -2247.5319      6.8949919     -2240.6369     -13578.174    
     12750   131.58874      261.62937     -2246.3796      5.7491026     -2240.6305     -12399.796    
     12800   152.59478      303.39432     -2247.3066      6.666855      -2240.6397     -11371.952    
     12850   143.3133       284.94056     -2246.8963      6.2613478     -2240.635      -12522.925    
     12900   136.55252      271.49853     -2246.6047      5.9659697     -2240.6387     -11579.978    
     12950   159.01085      316.15099     -2247.5901      6.9471729     -2240.6429     -15805.916    
     13000   155.3502       308.87275     -2247.4271      6.7872392     -2240.6398     -13308.923    
     13050   150.41627      299.06294     -2247.2158      6.5716762     -2240.6441     -13888.578    
     13100   158.67076      315.47481     -2247.5754      6.9323143     -2240.6431     -12607.567    
     13150   145.60006      289.48717     -2247.006       6.3612561     -2240.6448     -15281.942    
     13200   140.78765      279.91898     -2246.7978      6.1510025     -2240.6468     -10531.287    
     13250   145.28851      288.86775     -2247.0003      6.3476448     -2240.6526     -13188.16     
     13300   156.37449      310.90929     -2247.4819      6.8319905     -2240.6499     -12987.498    
     13350   149.40548      297.05324     -2247.1794      6.5275146     -2240.6519     -10387.222    
     13400   149.57012      297.38058     -2247.1823      6.5347078     -2240.6476     -16726.655    
     13450   151.6284       301.47293     -2247.2782      6.6246339     -2240.6535     -14978.188    
     13500   161.71986      321.53714     -2247.7223      7.0655294     -2240.6568     -14823.872    
     13550   151.12856      300.47913     -2247.2571      6.602796      -2240.6543     -13931.804    
     13600   137.10084      272.58873     -2246.6438      5.9899259     -2240.6539     -14023.795    
     13650   147.71142      293.68506     -2247.1109      6.4535015     -2240.6574     -12319.266    
     13700   141.50361      281.34247     -2246.8414      6.1822826     -2240.6592     -16038.391    
     13750   149.7957       297.8291      -2247.2084      6.5445636     -2240.6639     -13121.886    
     13800   135.93179      270.26437     -2246.5966      5.9388501     -2240.6577     -15373.359    
     13850   156.44978      311.05898     -2247.497       6.8352799     -2240.6617     -12803.017    
     13900   142.22138      282.76956     -2246.8712      6.2136419     -2240.6576     -13086.581    
     13950   152.04328      302.29782     -2247.298       6.6427603     -2240.6552     -14831.268    
     14000   137.84085      274.06005     -2246.6766      6.022257      -2240.6544     -16343.902    
     14050   141.1433       280.6261      -2246.8186      6.1665409     -2240.652      -12840.989    
     14100   134.20868      266.83843     -2246.5127      5.8635675     -2240.6491     -15071.716    
     14150   143.9902       286.28639     -2246.9411      6.2909214     -2240.6502     -13290.215    
     14200   142.95346      284.22511     -2246.8881      6.2456263     -2240.6425     -14649.78     
     14250   145.39534      289.08015     -2246.995       6.3523121     -2240.6427     -12169.601    
     14300   147.19006      292.64846     -2247.0692      6.4307231     -2240.6385     -14303.476    
     14350   144.67424      287.64643     -2246.9553      6.3208074     -2240.6345     -11240.436    
     14400   139.34252      277.04572     -2246.7152      6.0878649     -2240.6274     -13780.389    
     14450   160.1309       318.37791     -2247.6277      6.9961077     -2240.6316     -11982.447    
     14500   144.17987      286.6635      -2246.9238      6.2992082     -2240.6246     -13240.587    
     14550   145.37957      289.04879     -2246.966       6.3516231     -2240.6143     -12166.824    
     14600   152.28969      302.78775     -2247.2666      6.653526      -2240.6131     -13184.259    
     14650   140.46574      279.27895     -2246.7406      6.1369383     -2240.6037     -10382.928    
     14700   156.84099      311.8368      -2247.4488      6.8523718     -2240.5964     -13117.81     
     14750   142.06428      282.45722     -2246.7981      6.2067784     -2240.5913     -13300.603    
     14800   144.56631      287.43184     -2246.9044      6.3160918     -2240.5883     -12914.4      
     14850   165.15164      328.36033     -2247.7981      7.2154636     -2240.5827     -15052.322    
     14900   159.8077       317.73531     -2247.5579      6.981987      -2240.5759     -12781.953    
     14950   164.3845       326.83507     -2247.7494      7.1819473     -2240.5675     -11810.495    
     15000   152.49634      303.1986      -2247.2246      6.6625541     -2240.562      -16593.509    
     15050   138.97863      276.32222     -2246.6231      6.0719666     -2240.5511     -11410.02     
     15100   148.41926      295.09242     -2247.0305      6.4844271     -2240.546      -13920.757    
     15150   146.56833      291.41232     -2246.9495      6.4035598     -2240.546      -14035.181    
     15200   154.21637      306.61842     -2247.2735      6.7377021     -2240.5358     -13464.224    
     15250   147.85839      293.97727     -2246.9824      6.4599227     -2240.5225     -12756.87     
     15300   154.89739      307.97245     -2247.2825      6.7674558     -2240.5151     -12423.651    
     15350   142.55971      283.44225     -2246.7351      6.2284238     -2240.5067     -11505.142    
     15400   141.97081      282.27138     -2246.702       6.2026947     -2240.4993     -14962.509    
     15450   145.394        289.07748     -2246.8371      6.3522534     -2240.4848     -12863.512    
     15500   142.11554      282.55913     -2246.689       6.2090178     -2240.48       -13130.38     
     15550   133.47485      265.3794      -2246.3006      5.8315065     -2240.4691     -12307.263    
     15600   147.61644      293.49622     -2246.901       6.4493519     -2240.4517     -15397.108    
     15650   154.93699      308.05119     -2247.216       6.7691861     -2240.4468     -16201.228    
     15700   141.67037      281.67402     -2246.6175      6.1895682     -2240.4279     -12586.443    
     15750   151.3687       300.9566      -2247.0231      6.6132879     -2240.4098     -15539.145    
     15800   159.52634      317.17589     -2247.3752      6.9696943     -2240.4055     -12706.16     
     15850   149.80592      297.84942     -2246.9273      6.5450101     -2240.3823     -14483.695    
     15900   147.27865      292.82461     -2246.806       6.4345938     -2240.3714     -11752.375    
     15950   156.03739      310.23905     -2247.18        6.8172625     -2240.3627     -13878.232    
     16000   147.88069      294.02161     -2246.8027      6.4608969     -2240.3418     -14599.673    
     16050   147.84551      293.95166     -2246.7819      6.4593598     -2240.3226     -10864.008    
     16100   162.34617      322.78238     -2247.4103      7.0928926     -2240.3174     -12046.131    
     16150   140.303        278.95538     -2246.4295      6.1298281     -2240.2996     -12873.376    
     16200   163.82232      325.71732     -2247.4393      7.1573856     -2240.282      -11642.62     
     16250   157.86075      313.86432     -2247.1579      6.8969251     -2240.2609     -10897.218    
     16300   145.70402      289.69387     -2246.6118      6.3657983     -2240.246      -7917.3282    
     16350   160.61898      319.34832     -2247.2511      7.0174316     -2240.2337     -10870.483    
     16400   162.60959      323.30612     -2247.3194      7.1044013     -2240.215      -12277.937    
     16450   165.0785       328.21491     -2247.4166      7.2122681     -2240.2043     -12258.384    
     16500   144.6306       287.55966     -2246.5093      6.3189006     -2240.1904     -14221.578    
     16550   160.08256      318.2818      -2247.1699      6.9939958     -2240.1759     -13348.562    
     16600   163.93618      325.9437      -2247.3163      7.16236       -2240.154      -13686.319    
     16650   155.33799      308.84847     -2246.9183      6.7867057     -2240.1316     -12980.523    
     16700   159.77417      317.66864     -2247.1011      6.9805221     -2240.1206     -13898.459    
     16750   150.91953      300.06354     -2246.7016      6.5936636     -2240.108      -12867.509    
     16800   152.64066      303.48555     -2246.7597      6.6688597     -2240.0908     -16580.742    
     16850   145.06286      288.4191      -2246.4106      6.3377861     -2240.0728     -14824.431    
     16900   157.23269      312.61559     -2246.9276      6.8694852     -2240.0581     -13079.372    
     16950   155.53136      309.23294     -2246.8395      6.7951541     -2240.0444     -12812.144    
     17000   167.99045      334.00454     -2247.3652      7.3394908     -2240.0258     -10065.931    
     17050   173.27245      344.50641     -2247.5835      7.5702612     -2240.0133     -14807.178    
     17100   171.53868      341.05926     -2247.4893      7.4945129     -2239.9947     -13451.158    
     17150   159.04108      316.2111      -2246.9287      6.9484937     -2239.9802     -13784.65     
     17200   152.47451      303.15519     -2246.6263      6.6616003     -2239.9647     -11921.596    
     17250   145.7356       289.75667     -2246.3195      6.3671781     -2239.9523     -13253.476    
     17300   160.06329      318.24349     -2246.9365      6.9931539     -2239.9434     -15056.302    
     17350   152.24857      302.70598     -2246.5741      6.6517292     -2239.9224     -15410.087    
     17400   145.13019      288.55297     -2246.2466      6.3407278     -2239.9059     -14190.45     
     17450   159.86208      317.84343     -2246.8836      6.984363      -2239.8993     -13325.165    
     17500   166.39489      330.83219     -2247.1554      7.2697808     -2239.8857     -13626.771    
     17550   161.8737       321.843       -2246.9371      7.0722504     -2239.8648     -14071.923    
     17600   153.47082      305.13609     -2246.5653      6.7051291     -2239.8602     -14974.775    
     17650   156.15333      310.46957     -2246.6707      6.8223281     -2239.8484     -13186.193    
     17700   159.1163       316.36065     -2246.786       6.9517801     -2239.8342     -13670.965    
     17750   159.39034      316.9055      -2246.7919      6.9637527     -2239.8282     -11446.247    
     17800   163.42307      324.92351     -2246.9591      7.1399422     -2239.8192     -15559.78     
     17850   155.66468      309.49802     -2246.6048      6.800979      -2239.8038     -14368.303    
     17900   161.9664       322.02732     -2246.8717      7.0763006     -2239.7954     -14152.765    
     17950   155.31242      308.79763     -2246.5649      6.7855885     -2239.7793     -13811.753    
     18000   157.66484      313.47481     -2246.6634      6.8883659     -2239.7751     -13165.267    
     18050   154.28895      306.76274     -2246.5067      6.7408734     -2239.7658     -13415.108    
     18100   155.14554      308.46584     -2246.5417      6.7782978     -2239.7634     -11998.612    
     18150   155.388        308.9479      -2246.5429      6.7888907     -2239.754      -16173.096    
     18200   164.87517      327.81063     -2246.9444      7.2033845     -2239.741      -13001.391    
     18250   160.64018      319.39048     -2246.7525      7.0183581     -2239.7342     -15791.431    
     18300   170.92842      339.84592     -2247.2015      7.4678505     -2239.7336     -11839.913    
     18350   162.73844      323.56232     -2246.836       7.110031      -2239.7259     -14457.759    
     18400   162.57366      323.23469     -2246.8205      7.1028317     -2239.7177     -12822.568    
     18450   158.26584      314.66973     -2246.6301      6.9146234     -2239.7155     -13374.242    
     18500   167.26902      332.57017     -2247.011       7.3079716     -2239.7031     -14548.262    
     18550   177.14599      352.20791     -2247.4479      7.7394957     -2239.7084     -12556.513    
     18600   162.02455      322.14293     -2246.8015      7.0788412     -2239.7227     -15272.122    
     18650   169.3795       336.76629     -2247.1156      7.4001781     -2239.7154     -12832.346    
     18700   168.23555      334.49187     -2247.0732      7.3501995     -2239.723      -13411.349    
     18750   165.38584      328.82596     -2246.9398      7.2256954     -2239.7141     -17505.742    
     18800   164.67999      327.42257     -2246.9081      7.1948571     -2239.7133     -12234.096    
     18850   153.86522      305.92025     -2246.431       6.7223604     -2239.7087     -13486.804    
     18900   168.92705      335.86672     -2247.0975      7.3804107     -2239.717      -11338.669    
     18950   155.55327      309.2765      -2246.5118      6.7961113     -2239.7157     -10505.909    
     19000   167.56837      333.16534     -2247.0317      7.32105       -2239.7106     -13521.231    
     19050   162.97603      324.0347      -2246.8371      7.1204112     -2239.7167     -9785.3308    
     19100   159.68526      317.49186     -2246.6983      6.9766375     -2239.7217     -12419.467    
     19150   173.44455      344.84857     -2247.3066      7.5777799     -2239.7289     -12195.323    
     19200   157.42454      312.99703     -2246.6074      6.8778671     -2239.7295     -11437.277    
     19250   156.20674      310.57574     -2246.563       6.8246612     -2239.7383     -12406.866    
     19300   149.74922      297.73668     -2246.292       6.5425327     -2239.7495     -10961.513    
     19350   162.31897      322.72831     -2246.8485      7.0917044     -2239.7568     -14087.018    
     19400   178.19277      354.28915     -2247.553       7.7852295     -2239.7678     -10838.647    
     19450   155.71066      309.58944     -2246.5747      6.8029879     -2239.7717     -10471.006    
     19500   166.36406      330.77089     -2247.0631      7.268434      -2239.7947     -13478.735    
     19550   165.1196       328.29661     -2247.024       7.2140634     -2239.81       -13524.306    
     19600   172.24945      342.47243     -2247.348       7.5255661     -2239.8225     -12278.113    
     19650   156.56638      311.29081     -2246.6731      6.8403741     -2239.8327     -12396.374    
     19700   160.53867      319.18865     -2246.8637      7.0139232     -2239.8498     -12359.041    
     19750   156.32436      310.80961     -2246.6983      6.8298002     -2239.8685     -12165.317    
     19800   144.63569      287.56979     -2246.2024      6.3191231     -2239.8833     -12545.232    
     19850   151.39078      301.0005      -2246.5168      6.6142526     -2239.9025     -12285.467    
     19900   155.76895      309.70532     -2246.7271      6.8055343     -2239.9215     -11214.235    
     19950   166.06163      330.16959     -2247.202       7.2552207     -2239.9467     -14868.326    
     20000   175.2354       348.4092      -2247.6272      7.656022      -2239.9712     -10229.364    
     20050   163.39032      324.8584      -2247.1333      7.1385114     -2239.9948     -14094.017    
     20100   168.4518       334.92181     -2247.3835      7.3596471     -2240.0238     -14216.845    
     20150   166.42817      330.89836     -2247.3247      7.2712348     -2240.0535     -10564.821    
     20200   164.92129      327.90233     -2247.2855      7.2053995     -2240.0801     -13895.015    
     20250   154.39458      306.97275     -2246.8561      6.7454883     -2240.1106     -12605.048    
     20300   159.82095      317.76165     -2247.1291      6.982566      -2240.1466     -16856.847    
     20350   155.28654      308.74619     -2246.9584      6.7844581     -2240.174      -14461.795    
     20400   156.11412      310.39159     -2247.0314      6.8206146     -2240.2108     -12470.32     
     20450   144.57357      287.44628     -2246.5512      6.3164091     -2240.2348     -13819.973    
     20500   164.91438      327.88859     -2247.4827      7.2050975     -2240.2776     -12174.17     
     20550   148.07455      294.40705     -2246.7676      6.4693666     -2240.2982     -15554.945    
     20600   152.30996      302.82804     -2246.9932      6.6544114     -2240.3387     -14272.233    
     20650   157.46413      313.07575     -2247.2525      6.8795968     -2240.3729     -17019.363    
     20700   155.64546      309.45979     -2247.2091      6.800139      -2240.409      -13515.823    
     20750   150.30914      298.84994     -2247.0145      6.5669956     -2240.4475     -14555.614    
     20800   149.94801      298.13193     -2247.0282      6.5512179     -2240.477      -14755.189    
     20850   153.14687      304.492       -2247.205       6.6909757     -2240.514      -12505.959    
     20900   157.30086      312.75112     -2247.4217      6.8724633     -2240.5492     -12602.266    
     20950   150.18402      298.60117     -2247.1448      6.5615292     -2240.5832     -15400.06     
     21000   168.1592       334.34006     -2247.9636      7.3468636     -2240.6167     -14355.352    
     21050   157.14863      312.44845     -2247.5204      6.8658125     -2240.6546     -11805.063    
     21100   153.46437      305.12328     -2247.4026      6.7048474     -2240.6978     -13907.245    
     21150   156.10119      310.36589     -2247.5499      6.8200499     -2240.7299     -11542.609    
     21200   147.62573      293.51469     -2247.206       6.4497577     -2240.7563     -14357.615    
     21250   152.5024       303.21066     -2247.4571      6.6628192     -2240.7943     -11889.812    
     21300   139.84974      278.05419     -2246.9193      6.1100253     -2240.8093     -11408.658    
     21350   148.43913      295.13192     -2247.3307      6.4852951     -2240.8454     -13936.618    
     21400   138.4545       275.28012     -2246.9186      6.0490671     -2240.8695     -14764.435    
     21450   159.29529      316.71652     -2247.8639      6.9595999     -2240.9043     -12336.024    
     21500   160.66861      319.447       -2247.953       7.0196001     -2240.9334     -12658.584    
     21550   158.54266      315.22012     -2247.886       6.9267177     -2240.9593     -15874.727    
     21600   157.91909      313.98032     -2247.8846      6.899474      -2240.9851     -13487.257    
     21650   154.37612      306.93605     -2247.7579      6.7446818     -2241.0133     -10379.497    
     21700   143.60997      285.53042     -2247.31        6.2743095     -2241.0357     -13377.876    
     21750   158.29008      314.71793     -2247.9793      6.9156826     -2241.0637     -14534.742    
     21800   159.11926      316.36653     -2248.0346      6.9519092     -2241.0827     -12387.673    
     21850   145.35978      289.00945     -2247.4546      6.3507585     -2241.1038     -13400.465    
     21900   149.99058      298.21656     -2247.6756      6.5530776     -2241.1225     -11846.521    
     21950   148.5721       295.3963      -2247.6329      6.4911046     -2241.1418     -11758.462    
     22000   144.29999      286.90234     -2247.4601      6.3044565     -2241.1556     -12562.626    
     22050   141.30219      280.942       -2247.3486      6.1734826     -2241.1752     -12802.802    
     22100   140.44393      279.23558     -2247.323       6.1359853     -2241.187      -13394.63     
     22150   157.63721      313.41987     -2248.0994      6.8871586     -2241.2122     -10946.314    
     22200   149.61958      297.47892     -2247.7544      6.5368687     -2241.2175     -12090.954    
     22250   155.39358      308.959       -2248.0223      6.7891346     -2241.2332     -13388.426    
     22300   137.53833      273.45856     -2247.2541      6.0090399     -2241.2451     -14766.416    
     22350   145.01356      288.32109     -2247.5942      6.3356323     -2241.2586     -13821.036    
     22400   149.68265      297.60433     -2247.8142      6.5396245     -2241.2745     -14051.26     
     22450   147.21791      292.70384     -2247.7146      6.43194       -2241.2826     -13023.215    
     22500   150.27695      298.78593     -2247.8577      6.5655892     -2241.2921     -15914.075    
     22550   142.62725      283.57654     -2247.5286      6.2313746     -2241.2972     -12763.468    
     22600   153.09232      304.38356     -2248.0034      6.6885928     -2241.3148     -12205.912    
     22650   161.97477      322.04394     -2248.4009      7.076666      -2241.3243     -11096.412    
     22700   157.58409      313.31425     -2248.2154      6.8848377     -2241.3306     -13891.639    
     22750   151.19388      300.60901     -2247.9483      6.6056499     -2241.3427     -12954.233    
     22800   156.68789      311.5324      -2248.1982      6.8456829     -2241.3526     -12168.983    
     22850   143.27448      284.86337     -2247.6198      6.2596517     -2241.3601     -16305.723    
     22900   149.35089      296.94471     -2247.8985      6.5251297     -2241.3733     -11023.653    
     22950   150.63867      299.50513     -2247.9608      6.581393      -2241.3794     -15505.328    
     23000   155.36581      308.90378     -2248.1772      6.7879211     -2241.3893     -11902.741    
     23050   146.2938       290.86649     -2247.7875      6.3915656     -2241.3959     -13342.966    
     23100   155.71943      309.60687     -2248.2136      6.803371      -2241.4102     -11340.179    
     23150   156.87039      311.89525     -2248.2663      6.8536564     -2241.4127     -15008.486    
     23200   146.33861      290.95558     -2247.8091      6.3935233     -2241.4156     -14058.479    
     23250   154.42657      307.03636     -2248.172       6.7468859     -2241.4251     -12987.145    
     23300   144.77958      287.85588     -2247.7561      6.3254098     -2241.4307     -15483.271    
     23350   154.76998      307.71913     -2248.2054      6.7618893     -2241.4435     -14451.183    
     23400   142.427        283.17838     -2247.6667      6.2226253     -2241.444      -14643.066    
     23450   146.75663      291.7867      -2247.871       6.4117866     -2241.4592     -11757.672    
     23500   151.11385      300.44989     -2248.0624      6.6021534     -2241.4603     -15057.499    
     23550   138.63992      275.64879     -2247.5218      6.0571684     -2241.4647     -13197.295    
     23600   143.42778      285.16817     -2247.7412      6.2663494     -2241.4748     -14046.109    
     23650   145.64422      289.57498     -2247.8432      6.3631857     -2241.48       -12167.24     
     23700   149.80686      297.8513      -2248.0311      6.5450513     -2241.486      -15053.861    
     23750   142.49883      283.3212      -2247.7109      6.2257637     -2241.4851     -9924.5148    
     23800   147.97079      294.20074     -2247.957       6.4648333     -2241.4922     -14443.621    
     23850   144.32122      286.94455     -2247.8012      6.305384      -2241.4958     -13133.242    
     23900   155.34603      308.86447     -2248.2909      6.7870572     -2241.5038     -12170.088    
     23950   150.02474      298.28448     -2248.0595      6.5545702     -2241.5049     -16028.207    
     24000   142.44278      283.20976     -2247.7327      6.2233148     -2241.5094     -13861.06     
     24050   147.15744      292.58362     -2247.95        6.4292982     -2241.5207     -15230.207    
     24100   136.10559      270.60993     -2247.4646      5.9464434     -2241.5182     -13771.437    
     24150   154.74158      307.66266     -2248.2886      6.7606485     -2241.5279     -14687.884    
     24200   143.78851      285.8854      -2247.813       6.28211       -2241.5309     -16165.658    
     24250   147.5455       293.35518     -2247.9784      6.4462526     -2241.5322     -12761.68     
     24300   144.6787       287.65529     -2247.8557      6.321002      -2241.5347     -9375.9479    
     24350   131.82309      262.09532     -2247.2892      5.7593414     -2241.5298     -12135.489    
     24400   153.63364      305.45983     -2248.2519      6.7122428     -2241.5396     -12913.028    
     24450   152.12129      302.45291     -2248.1849      6.6461682     -2241.5388     -14045.389    
     24500   146.21418      290.70819     -2247.9307      6.388087      -2241.5426     -13283.422    
     24550   143.29305      284.90029     -2247.7979      6.260463      -2241.5375     -13362.306    
     24600   140.75499      279.85404     -2247.6919      6.1495756     -2241.5423     -12985.671    
     24650   140.59911      279.54412     -2247.6874      6.1427653     -2241.5447     -13491.158    
     24700   145.60483      289.49666     -2247.906       6.3614646     -2241.5445     -11554.493    
     24750   139.24639      276.85459     -2247.6276      6.0836649     -2241.5439     -12950.252    
     24800   134.6974       267.81012     -2247.4301      5.8849198     -2241.5452     -12904.289    
     24850   143.28143      284.8772      -2247.8024      6.2599556     -2241.5424     -14529.919    
     24900   130.70218      259.86668     -2247.2496      5.7103688     -2241.5392     -9727.5757    
     24950   128.37383      255.23738     -2247.1479      5.6086435     -2241.5393     -11542.384    
     25000   143.53205      285.37549     -2247.8032      6.2709052     -2241.5323     -11076.588    
     25050   149.93112      298.09835     -2248.0871      6.5504801     -2241.5366     -10849.851    
     25100   148.18768      294.63198     -2248.003       6.4743093     -2241.5287     -16644.287    
     25150   146.76794      291.8092      -2247.9437      6.412281      -2241.5314     -11830.915    
     25200   152.95964      304.11976     -2248.2152      6.682796      -2241.5324     -13490.144    
     25250   150.58626      299.40091     -2248.0962      6.5791029     -2241.5171     -15621.002    
     25300   148.95495      296.15749     -2248.0259      6.5078312     -2241.5181     -11869.742    
     25350   142.822        283.96375     -2247.7504      6.2398832     -2241.5106     -14745.099    
     25400   138.74279      275.85331     -2247.5687      6.0616625     -2241.5071     -11533.288    
     25450   139.4434       277.24628     -2247.5971      6.0922721     -2241.5048     -14113.747    
     25500   140.45847      279.26449     -2247.6349      6.1366206     -2241.4983     -13911.485    
     25550   146.78491      291.84295     -2247.9093      6.4130225     -2241.4963     -14742.699    
     25600   163.68768      325.44962     -2248.6502      7.1515032     -2241.4987     -11760.728    
     25650   146.47888      291.23448     -2247.8864      6.3996519     -2241.4868     -14830.718    
     25700   145.81413      289.91281     -2247.8476      6.3706091     -2241.477      -16884.36     
     25750   147.68307      293.62868     -2247.9301      6.4522627     -2241.4778     -11216.984    
     25800   134.44396      267.30622     -2247.3422      5.8738469     -2241.4684     -14030.958    
     25850   150.63826      299.50431     -2248.0488      6.5813749     -2241.4674     -12784.241    
     25900   140.46184      279.27119     -2247.5941      6.1367679     -2241.4574     -15706.925    
     25950   132.5721       263.58453     -2247.2389      5.7920657     -2241.4469     -14036.463    
     26000   140.32011      278.9894      -2247.5749      6.1305757     -2241.4444     -13372.5      
     26050   156.35225      310.86506     -2248.2701      6.8310186     -2241.4391     -13917.71     
     26100   137.57253      273.52655     -2247.4305      6.0105339     -2241.42       -13911.386    
     26150   143.19732      284.70997     -2247.6698      6.2562808     -2241.4135     -14871.824    
     26200   142.04812      282.42508     -2247.6042      6.2060722     -2241.3981     -12741.615    
     26250   158.35251      314.84206     -2248.3107      6.9184101     -2241.3923     -12432.452    
     26300   144.33196      286.9659      -2247.6798      6.3058531     -2241.374      -11127.378    
     26350   157.69702      313.53878     -2248.2612      6.8897716     -2241.3714     -11488.848    
     26400   149.60633      297.45258     -2247.8869      6.5362898     -2241.3506     -15219.213    
     26450   163.68727      325.4488      -2248.4964      7.151485      -2241.3449     -13525.33     
     26500   149.11945      296.48455     -2247.8481      6.5150182     -2241.333      -14550.397    
     26550   156.64455      311.44623     -2248.1703      6.8437895     -2241.3265     -11733.139    
     26600   148.83025      295.90956     -2247.8103      6.5023831     -2241.308      -14519.83     
     26650   143.56709      285.44515     -2247.5713      6.2724359     -2241.2989     -15023.62     
     26700   142.26178      282.8499      -2247.5048      6.2154072     -2241.2894     -11897.625    
     26750   146.02915      290.34032     -2247.6528      6.3800033     -2241.2728     -13848.535    
     26800   146.32528      290.92908     -2247.6553      6.392941      -2241.2624     -15230.841    
     26850   144.90601      288.10724     -2247.5853      6.3309331     -2241.2543     -12499.543    
     26900   142.54141      283.40587     -2247.4699      6.2276242     -2241.2423     -15909.499    
     26950   149.09323      296.43243     -2247.7438      6.5138728     -2241.2299     -13277.692    
     27000   133.24676      264.92591     -2247.0346      5.8215414     -2241.213      -14229.57     
     27050   145.83372      289.95175     -2247.5701      6.3714649     -2241.1987     -13191.426    
     27100   158.36785      314.87255     -2248.1014      6.9190801     -2241.1823     -14932.799    
     27150   146.92028      292.11209     -2247.5838      6.4189366     -2241.1648     -10862.405    
     27200   136.84439      272.07886     -2247.1236      5.9787219     -2241.1449     -14921.441    
     27250   137.04652      272.48073     -2247.1133      5.9875528     -2241.1258     -13607.129    
     27300   157.74386      313.63192     -2248.0115      6.8918183     -2241.1197     -12806.065    
     27350   144.77223      287.84125     -2247.4215      6.3250882     -2241.0964     -13945.06     
     27400   156.37765      310.91556     -2247.9087      6.8321285     -2241.0765     -12284.148    
     27450   156.0609       310.28578     -2247.8735      6.8182894     -2241.0552     -14838.797    
     27500   150.63088      299.48963     -2247.6159      6.5810525     -2241.0348     -12405.895    
     27550   153.29524      304.78701     -2247.7118      6.6974583     -2241.0144     -12530.766    
     27600   149.24984      296.7438      -2247.5194      6.5207149     -2240.9987     -12434.59     
     27650   155.48216      309.13511     -2247.7708      6.7930044     -2240.9778     -13876.652    
     27700   153.48097      305.15629     -2247.6625      6.7055728     -2240.9569     -15178.703    
     27750   147.94847      294.15638     -2247.3981      6.4638583     -2240.9342     -12199.99     
     27800   138.17906      274.73249     -2246.9466      6.0370333     -2240.9095     -13742.612    
     27850   161.66545      321.42896     -2247.9528      7.0631521     -2240.8897     -11221.339    
     27900   156.00623      310.17708     -2247.6823      6.8159009     -2240.8664     -10971.243    
     27950   163.68955      325.45334     -2247.9911      7.1515848     -2240.8395     -9892.2875    
     28000   154.78497      307.74894     -2247.5788      6.7625443     -2240.8162     -13199.009    
     28050   157.22866      312.60757     -2247.662       6.869309      -2240.7927     -10784.129    
     28100   144.79663      287.88977     -2247.0946      6.3261545     -2240.7684     -14185.534    
     28150   153.54991      305.29335     -2247.4542      6.7085847     -2240.7456     -14896.371    
     28200   146.85765      291.98755     -2247.1323      6.4162001     -2240.7161     -11395.702    
     28250   156.79782      311.75096     -2247.5432      6.8504856     -2240.6927     -13193.939    
     28300   140.09218      278.53621     -2246.7863      6.1206173     -2240.6657     -11990.364    
     28350   153.56902      305.33134     -2247.3544      6.7094194     -2240.645      -12767.35     
     28400   150.29076      298.8134      -2247.1845      6.5661928     -2240.6183     -8917.2043    
     28450   169.50872      337.02321     -2248.0024      7.4058238     -2240.5966     -14609.677    
     28500   161.50783      321.11557     -2247.6283      7.0562656     -2240.572      -13347.741    
     28550   142.18574      282.6987      -2246.7578      6.2120847     -2240.5457     -7264.6297    
     28600   155.787        309.74121     -2247.3363      6.806323      -2240.53       -10070.265    
     28650   154.74546      307.67038     -2247.265       6.7608181     -2240.5042     -15381.86     
     28700   157.75576      313.65556     -2247.3702      6.8923377     -2240.4779     -12069.051    
     28750   164.31284      326.6926      -2247.6391      7.1788165     -2240.4603     -14487.409    
     28800   150.84092      299.90724     -2247.0287      6.5902291     -2240.4385     -9696.5187    
     28850   151.72488      301.66476     -2247.0416      6.6288492     -2240.4127     -15579.184    
     28900   158.49133      315.11807     -2247.3183      6.9244752     -2240.3939     -12100.854    
     28950   159.68477      317.49089     -2247.3507      6.9766162     -2240.3741     -13338.13     
     29000   159.35119      316.82766     -2247.3173      6.9620422     -2240.3553     -13314.739    
     29050   165.88626      329.82092     -2247.5875      7.247559      -2240.3399     -12439.259    
     29100   162.42226      322.93366     -2247.4083      7.0962168     -2240.3121     -14013.88     
     29150   162.5969       323.28089     -2247.3995      7.1038469     -2240.2956     -12551.672    
     29200   149.03757      296.32176     -2246.7799      6.5114408     -2240.2685     -11704.004    
     29250   148.09426      294.44624     -2246.7198      6.4702277     -2240.2495     -11831.098    
     29300   173.32202      344.60495     -2247.8203      7.5724265     -2240.2479     -15678.08     
     29350   147.20559      292.67935     -2246.6557      6.4314017     -2240.2243     -12799.317    
     29400   154.4742       307.13105     -2246.962       6.7489668     -2240.213      -15799.217    
     29450   155.99556      310.15588     -2247.0169      6.815435      -2240.2015     -11356.356    
     29500   148.92938      296.10665     -2246.6917      6.506714      -2240.185      -16796.059    
     29550   160.00223      318.12209     -2247.1639      6.9904862     -2240.1734     -11527.746    
     29600   161.77628      321.64931     -2247.2229      7.0679942     -2240.1549     -15195.17     
     29650   160.95272      320.01188     -2247.1721      7.032013      -2240.1401     -15412.728    
     29700   159.31776      316.76119     -2247.083       6.9605816     -2240.1224     -13488.912    
     29750   158.79955      315.73087     -2247.056       6.937941      -2240.1181     -11325.907    
     29800   157.34877      312.84638     -2246.9779      6.8745567     -2240.1034     -11296.341    
     29850   151.59527      301.40706     -2246.7165      6.6231865     -2240.0933     -14046.126    
     29900   164.21458      326.49722     -2247.255       7.1745232     -2240.0804     -17241.289    
     29950   140.53786      279.42234     -2246.2044      6.1400893     -2240.0643     -12675.939    
     30000   164.38921      326.84443     -2247.2423      7.182153      -2240.0601     -15353.042    
     30050   161.3442       320.79024     -2247.1004      7.0491167     -2240.0512     -12638.193    
     30100   149.77176      297.78151     -2246.5769      6.5435177     -2240.0333     -11430.845    
     30150   160.01565      318.14877     -2247.0171      6.9910725     -2240.0261     -11492.826    
     30200   147.4623       293.18975     -2246.4631      6.4426175     -2240.0205     -12000.576    
     30250   149.08376      296.4136      -2246.5228      6.5134591     -2240.0093     -8544.664     
     30300   161.29011      320.6827      -2247.0501      7.0467536     -2240.0033     -12898.556    
     30350   166.21819      330.48087     -2247.259       7.262061      -2239.9969     -13492.115    
     30400   161.90532      321.90588     -2247.0582      7.073632      -2239.9846     -11170.131    
     30450   156.34143      310.84356     -2246.8045      6.8305462     -2239.974      -11833.158    
     30500   154.2708       306.72666     -2246.7078      6.7400805     -2239.9677     -13306.148    
     30550   150.559        299.34672     -2246.5379      6.5779122     -2239.96       -12123.18     
     30600   149.80681      297.85118     -2246.5036      6.5450487     -2239.9586     -15224.435    
     30650   174.44131      346.83036     -2247.5759      7.6213283     -2239.9545     -12358.529    
     30700   164.24295      326.55363     -2247.1201      7.1757628     -2239.9444     -16405.914    
     30750   154.96911      308.11505     -2246.7123      6.7705893     -2239.9417     -13628.536    
     30800   163.00589      324.09406     -2247.0588      7.1217158     -2239.9371     -15040.445    
     30850   155.64972      309.46826     -2246.736       6.8003251     -2239.9357     -12132.84     
     30900   167.68968      333.40654     -2247.2628      7.3263502     -2239.9365     -13428.406    
     30950   162.69362      323.4732      -2247.0454      7.1080728     -2239.9373     -14538.677    
     31000   169.0097       336.03105     -2247.3188      7.3840218     -2239.9347     -12961.968    
     31050   160.85128      319.81018     -2246.9619      7.0275808     -2239.9343     -12279.715    
     31100   157.65529      313.45582     -2246.8196      6.8879486     -2239.9316     -13733.784    
     31150   156.56053      311.27918     -2246.7684      6.8401185     -2239.9283     -10084.939    
     31200   155.23717      308.64801     -2246.7114      6.7823008     -2239.9291     -14090.472    
     31250   154.13103      306.44875     -2246.6579      6.7339737     -2239.9239     -12455.824    
     31300   160.43658      318.98566     -2246.94        7.0094626     -2239.9305     -11993.231    
     31350   156.91735      311.98862     -2246.7834      6.855708      -2239.9277     -13015.194    
     31400   163.38114      324.84015     -2247.068       7.1381104     -2239.9299     -11464.762    
     31450   157.68834      313.52151     -2246.8164      6.8893922     -2239.927      -15621.132    
     31500   167.93519      333.89466     -2247.2772      7.3370764     -2239.9402     -13092.996    
     31550   174.59562      347.13717     -2247.5773      7.6280702     -2239.9493     -12613.956    
     31600   157.12134      312.39419     -2246.8072      6.8646201     -2239.9426     -13609.368    
     31650   150.08839      298.41104     -2246.5057      6.5573513     -2239.9484     -13562.941    
     31700   153.29835      304.79319     -2246.6552      6.697594      -2239.9576     -11833.603    
     31750   154.73224      307.6441      -2246.7272      6.7602406     -2239.967      -15824.633    
     31800   161.9185       321.93207     -2247.0496      7.0742076     -2239.9754     -10640.594    
     31850   170.13182      338.26209     -2247.4232      7.4330471     -2239.9901     -13252.693    
     31900   151.46582      301.1497      -2246.6066      6.6175311     -2239.989      -16191.271    
     31950   165.07281      328.20358     -2247.2155      7.2120191     -2240.0035     -12807.759    
     32000   157.44953      313.04671     -2246.897       6.8789586     -2240.018      -15588.132    
     32050   171.31944      340.62336     -2247.524       7.4849342     -2240.0391     -12267.66     
     32100   170.07543      338.14997     -2247.4886      7.4305834     -2240.058      -14189.183    
     32150   158.8538       315.83873     -2247.0162      6.9403112     -2240.0759     -13754.969    
     32200   152.28569      302.77978     -2246.7413      6.6533509     -2240.0879     -13094.353    
     32250   152.82809      303.85821     -2246.7816      6.6770486     -2240.1046     -12250.419    
     32300   142.12432      282.57658     -2246.3406      6.2094012     -2240.1312     -13370.916    
     32350   157.27271      312.69515     -2247.026       6.8712336     -2240.1548     -13038.591    
     32400   156.52914      311.21676     -2247.0155      6.8387471     -2240.1767     -14853.429    
     32450   161.38578      320.87291     -2247.2535      7.0509334     -2240.2025     -11199.232    
     32500   163.02751      324.13705     -2247.3632      7.1226604     -2240.2405     -13329.775    
     32550   156.54225      311.24282     -2247.1047      6.8393196     -2240.2653     -12028.574    
     32600   144.13512      286.57453     -2246.5916      6.2972531     -2240.2943     -13867.324    
     32650   161.53611      321.1718      -2247.3981      7.0575012     -2240.3406     -12876.312    
     32700   154.85186      307.88194     -2247.1452      6.7654669     -2240.3798     -14558.771    
     32750   163.80896      325.69076     -2247.5736      7.1568018     -2240.4168     -14968.871    
     32800   151.29781      300.81564     -2247.071       6.6101904     -2240.4608     -10559.279    
     32850   153.04471      304.28889     -2247.1899      6.6865125     -2240.5034     -11711.762    
[...]
    192000   157.31793      312.78506     -2248.307       6.8732092     -2241.4338     -11936.656    
    192050   152.84353      303.8889      -2248.1091      6.677723      -2241.4314     -15328.22     
    192100   148.18834      294.63328     -2247.9023      6.4743379     -2241.428      -15461.648    
    192150   143.09867      284.51383     -2247.6675      6.2519708     -2241.4155     -16385.966    
    192200   162.45478      322.99832     -2248.5226      7.0976377     -2241.4249     -12540.837    
    192250   147.30367      292.87436     -2247.8471      6.4356869     -2241.4114     -11114.877    
    192300   162.48617      323.06073     -2248.5146      7.099009      -2241.4156     -17673.072    
    192350   155.73404      309.63591     -2248.2134      6.8040091     -2241.4094     -13177.289    
    192400   158.7499       315.63215     -2248.3376      6.9357717     -2241.4018     -14507.871    
    192450   149.63819      297.51593     -2247.9338      6.5376819     -2241.3962     -14664.852    
    192500   164.39449      326.85493     -2248.5815      7.1823837     -2241.3991     -11256.534    
    192550   155.71307      309.59422     -2248.1964      6.8030929     -2241.3933     -12158.089    
    192600   155.78579      309.7388      -2248.1951      6.80627       -2241.3888     -12914.913    
    192650   146.26478      290.80879     -2247.7673      6.3902976     -2241.377      -12845.153    
    192700   150.99132      300.20626     -2247.9758      6.5967998     -2241.379      -15900.014    
    192750   159.34834      316.82199     -2248.3385      6.9619176     -2241.3766     -14585.215    
    192800   158.66798      315.46928     -2248.3041      6.9321928     -2241.3719     -13778.709    
    192850   147.89008      294.04028     -2247.8285      6.4613071     -2241.3672     -13410.367    
    192900   158.8305       315.7924      -2248.309       6.9392932     -2241.3697     -14725.936    
    192950   167.74144      333.50946     -2248.7061      7.3286117     -2241.3775     -12787.707    
    193000   141.46195      281.25964     -2247.5473      6.1804626     -2241.3668     -15884.54     
    193050   156.22447      310.61101     -2248.1905      6.8254361     -2241.365      -13477.254    
    193100   146.86676      292.00567     -2247.7841      6.4165982     -2241.3675     -13573.802    
    193150   154.11641      306.41968     -2248.1068      6.7333349     -2241.3735     -14366.273    
    193200   162.92296      323.92918     -2248.4956      7.1180927     -2241.3775     -12287.718    
    193250   162.81726      323.71903     -2248.4917      7.1134746     -2241.3783     -11659.022    
    193300   155.96358      310.0923      -2248.1868      6.8140378     -2241.3728     -11449.166    
    193350   167.62966      333.2872      -2248.6979      7.3237278     -2241.3741     -12381.349    
    193400   156.27578      310.71302     -2248.2043      6.8276776     -2241.3766     -11856.792    
    193450   160.37227      318.8578      -2248.3819      7.0066529     -2241.3752     -14256.308    
    193500   149.76614      297.77032     -2247.9207      6.5432718     -2241.3774     -7756.9674    
    193550   148.11992      294.49726     -2247.848       6.4713488     -2241.3767     -14274.547    
    193600   159.08539      316.2992      -2248.3311      6.9504296     -2241.3807     -9838.7001    
    193650   151.56211      301.34114     -2248.0069      6.6217379     -2241.3852     -15314.016    
    193700   156.59616      311.35002     -2248.2289      6.8416753     -2241.3872     -13255.555    
    193750   162.18842      322.46874     -2248.4865      7.0860004     -2241.4005     -10160.055    
    193800   165.81955      329.68829     -2248.6486      7.2446445     -2241.4039     -11851.391    
    193850   146.30444      290.88764     -2247.7962      6.3920304     -2241.4042     -12288.915    
    193900   158.94747      316.02497     -2248.3552      6.9444037     -2241.4108     -10035.069    
    193950   146.25155      290.78249     -2247.8107      6.3897197     -2241.421      -13017.408    
    194000   151.28284      300.78588     -2248.037       6.6095365     -2241.4275     -13773.845    
    194050   153.63242      305.45739     -2248.144       6.7121894     -2241.4318     -12630.251    
    194100   149.96406      298.16384     -2247.9834      6.5519191     -2241.4315     -14317.074    
    194150   138.37999      275.13197     -2247.4885      6.0458117     -2241.4427     -12077.901    
    194200   167.24204      332.51652     -2248.7619      7.3067928     -2241.4551     -14984.839    
    194250   162.67903      323.44418     -2248.5735      7.1074351     -2241.466      -10525.255    
    194300   165.61711      329.28578     -2248.705       7.2357997     -2241.4692     -11057.234    
    194350   163.51954      325.11533     -2248.6223      7.1441573     -2241.4782     -10079.435    
    194400   150.4719       299.17354     -2248.0502      6.5741067     -2241.4761     -11703.291    
    194450   154.4882       307.15889     -2248.2427      6.7495783     -2241.4931     -11325.101    
    194500   153.14015      304.47864     -2248.1872      6.6906821     -2241.4965     -12842.979    
    194550   156.27885      310.71913     -2248.3366      6.8278121     -2241.5087     -11990.572    
    194600   146.94538      292.16198     -2247.9422      6.420033      -2241.5221     -9267.8368    
    194650   136.95152      272.29185     -2247.5097      5.9834023     -2241.5263     -13193.695    
    194700   147.05272      292.3754      -2247.9712      6.4247228     -2241.5464     -14154.664    
    194750   154.48471      307.15196     -2248.3105      6.7494261     -2241.561      -12433.136    
    194800   146.1863       290.65277     -2247.9531      6.3868693     -2241.5662     -11986.859    
    194850   151.55102      301.31908     -2248.1978      6.6212531     -2241.5765     -14021.851    
    194900   154.53584      307.25362     -2248.3493      6.75166       -2241.5976     -14589.344    
    194950   144.26065      286.82411     -2247.9104      6.3027375     -2241.6077     -11625.492    
    195000   145.93293      290.14901     -2247.9945      6.3757996     -2241.6187     -13790.567    
    195050   146.38558      291.04898     -2248.03        6.3955757     -2241.6344     -13349.669    
    195100   169.57863      337.16222     -2249.0596      7.4088783     -2241.6508     -10679.573    
    195150   151.71772      301.65053     -2248.2847      6.6285364     -2241.6561     -14388.258    
    195200   145.1287       288.54999     -2248.0082      6.3406624     -2241.6675     -11038.573    
    195250   143.89093      286.08902     -2247.9714      6.2865844     -2241.6848     -13942.078    
    195300   141.46074      281.25724     -2247.8846      6.1804099     -2241.7042     -13821.122    
    195350   142.11046      282.54904     -2247.9245      6.208796      -2241.7157     -14615.731    
    195400   144.31113      286.92449     -2248.0312      6.3049432     -2241.7262     -12524.234    
    195450   146.8563       291.98488     -2248.1603      6.4161414     -2241.7442     -14621.09     
    195500   155.51488      309.20018     -2248.5537      6.7944342     -2241.7593     -14857.045    
    195550   146.54599      291.36792     -2248.174       6.4025841     -2241.7714     -15288.357    
    195600   159.6379       317.39772     -2248.7629      6.9745687     -2241.7884     -11848.738    
    195650   157.96407      314.06974     -2248.7045      6.9014391     -2241.8031     -15993.746    
    195700   156.14051      310.44408     -2248.6423      6.821768      -2241.8205     -12321.62     
    195750   146.77658      291.82637     -2248.2463      6.4126583     -2241.8336     -13134.491    
    195800   144.90704      288.10929     -2248.1793      6.3309782     -2241.8483     -10586.891    
    195850   154.00331      306.19483     -2248.5939      6.7283939     -2241.8655     -14176.648    
    195900   157.95275      314.04723     -2248.7809      6.9009444     -2241.88       -12375.5      
    195950   161.63198      321.36242     -2248.956       7.0616899     -2241.8943     -12769.526    
    196000   156.03891      310.24207     -2248.7354      6.8173288     -2241.9181     -13111.895    
    196050   147.9824       294.22382     -2248.396       6.4653404     -2241.9307     -13496.199    
    196100   156.88631      311.9269      -2248.7997      6.8543518     -2241.9454     -12374.51     
    196150   134.59158      267.59974     -2247.84        5.8802967     -2241.9597     -12923.454    
    196200   129.84686      258.16611     -2247.6482      5.6730001     -2241.9752     -12868.762    
    196250   165.56621      329.18459     -2249.2316      7.2335761     -2241.998      -12091.01     
    196300   139.62542      277.60819     -2248.1112      6.1002247     -2242.011      -15466.386    
    196350   153.66424      305.52066     -2248.7464      6.7135796     -2242.0328     -12162.342    
    196400   152.72459      303.65242     -2248.7156      6.6725266     -2242.043      -9789.8336    
    196450   145.58484      289.45692     -2248.4284      6.3605914     -2242.0678     -12678.594    
    196500   158.3796       314.8959      -2249.0056      6.9195934     -2242.0861     -14683.302    
    196550   151.99102      302.19391     -2248.742       6.640477      -2242.1016     -10381.826    
    196600   161.37337      320.84822     -2249.1711      7.0503909     -2242.1207     -11508.376    
    196650   154.1456       306.47773     -2248.8684      6.7346104     -2242.1338     -11651.412    
    196700   129.38127      257.24041     -2247.7938      5.6526586     -2242.1411     -10989.157    
    196750   140.84716      280.03728     -2248.3131      6.1536022     -2242.1595     -12529.682    
    196800   159.11216      316.35242     -2249.1246      6.951599      -2242.173      -13902.274    
    196850   161.15617      320.41639     -2249.2411      7.0409018     -2242.2002     -11942.388    
    196900   142.6284       283.57882     -2248.4468      6.2314246     -2242.2154     -11175.295    
    196950   157.74896      313.64205     -2249.1226      6.8920409     -2242.2306     -11716.837    
    197000   147.99779      294.25443     -2248.7033      6.466013      -2242.2372     -14639.22     
    197050   136.76411      271.91922     -2248.2276      5.975214      -2242.2524     -10988.288    
    197100   139.56003      277.47817     -2248.3618      6.0973677     -2242.2644     -14659.741    
    197150   148.83594      295.92087     -2248.797       6.5026317     -2242.2943     -11558.015    
    197200   133.11153      264.65704     -2248.1163      5.8156333     -2242.3006     -15004.491    
    197250   144.65275      287.60371     -2248.6371      6.3198686     -2242.3172     -11235.875    
    197300   133.58384      265.59611     -2248.1597      5.8362686     -2242.3234     -13805.915    
    197350   151.1758       300.57305     -2248.9437      6.6048598     -2242.3389     -13434.043    
    197400   144.51913      287.33804     -2248.6618      6.3140306     -2242.3478     -12244.095    
    197450   144.08177      286.46847     -2248.6547      6.2949225     -2242.3598     -12151.6      
    197500   137.04671      272.4811      -2248.3656      5.9875609     -2242.3781     -14340.734    
    197550   144.31803      286.9382      -2248.6942      6.3052445     -2242.389      -13249.903    
    197600   142.99135      284.30045     -2248.6506      6.2472819     -2242.4034     -10711.378    
    197650   132.92494      264.28605     -2248.2122      5.807481      -2242.4047     -13642.702    
    197700   137.14541      272.67734     -2248.4062      5.9918732     -2242.4143     -10893.087    
    197750   132.86818      264.17321     -2248.2289      5.8050014     -2242.4239     -16133.215    
    197800   146.95727      292.18563     -2248.8612      6.4205526     -2242.4406     -14456.771    
    197850   147.28634      292.83991     -2248.8862      6.43493       -2242.4513     -11186.194    
    197900   143.59745      285.50551     -2248.7194      6.2737623     -2242.4456     -11605.635    
    197950   148.59938      295.45053     -2248.9551      6.4922963     -2242.4628     -16248.989    
    198000   135.40737      269.22171     -2248.3868      5.9159384     -2242.4709     -13290.043    
    198050   131.30968      261.07454     -2248.2182      5.7369106     -2242.4813     -11934.426    
    198100   144.66694      287.63192     -2248.8123      6.3204885     -2242.4918     -14601.067    
    198150   135.07072      268.55237     -2248.3981      5.90123       -2242.4968     -14057.985    
    198200   146.15408      290.58869     -2248.8933      6.3854612     -2242.5078     -11330.934    
    198250   143.76482      285.83829     -2248.7958      6.2810747     -2242.5147     -11606.675    
    198300   143.12275      284.5617      -2248.7678      6.2530227     -2242.5148     -11914.212    
    198350   144.8628       288.02134     -2248.8539      6.3290455     -2242.5248     -13574.674    
    198400   145.16718      288.62651     -2248.8776      6.3423438     -2242.5353     -11937.758    
    198450   137.88901      274.1558      -2248.5645      6.0243612     -2242.5401     -13696.666    
    198500   150.05048      298.33567     -2249.1017      6.555695      -2242.546      -13060.331    
    198550   141.76676      281.86568     -2248.7478      6.1937797     -2242.554      -15784.622    
    198600   156.34116      310.843       -2249.3924      6.830534      -2242.5619     -12185.67     
    198650   152.04707      302.30536     -2249.2142      6.6429258     -2242.5712     -9438.2073    
    198700   139.87234      278.09912     -2248.6844      6.1110126     -2242.5734     -14276.506    
    198750   143.07621      284.46917     -2248.828       6.2509894     -2242.577      -11256.589    
    198800   143.45699      285.22625     -2248.848       6.2676258     -2242.5804     -11248.14     
    198850   142.84679      284.01302     -2248.8288      6.2409659     -2242.5878     -14204.914    
    198900   135.12631      268.66291     -2248.4932      5.903659      -2242.5896     -11749.981    
    198950   138.57333      275.51638     -2248.6448      6.0542589     -2242.5905     -11018.711    
    199000   135.60175      269.60818     -2248.5187      5.9244307     -2242.5943     -14959.845    
    199050   141.89307      282.1168      -2248.7901      6.199298      -2242.5908     -12188.322    
    199100   140.01056      278.37394     -2248.7121      6.1170516     -2242.5951     -13219.121    
    199150   144.35289      287.0075      -2248.9021      6.3067673     -2242.5953     -11502.69     
    199200   142.61346      283.54912     -2248.8291      6.230772      -2242.5984     -13177.448    
    199250   140.25248      278.85493     -2248.7226      6.1276208     -2242.595      -12896.948    
    199300   141.67944      281.69206     -2248.7814      6.1899646     -2242.5914     -14393.542    
    199350   137.8478       274.07387     -2248.6133      6.0225608     -2242.5907     -12730.314    
    199400   141.01442      280.36985     -2248.7618      6.1609101     -2242.6008     -14101.877    
    199450   134.74868      267.91208     -2248.4766      5.8871603     -2242.5895     -16258.219    
    199500   133.31668      265.06494     -2248.4209      5.8245964     -2242.5963     -12829.571    
    199550   137.9564       274.28978     -2248.618       6.0273053     -2242.5907     -10372.655    
    199600   140.30742      278.96416     -2248.7184      6.130021      -2242.5884     -14077.439    
    199650   138.40763      275.18693     -2248.6314      6.0470195     -2242.5844     -13378.722    
    199700   135.36216      269.13183     -2248.4888      5.9139632     -2242.5749     -11231.226    
    199750   139.70696      277.7703      -2248.6797      6.103787      -2242.5759     -13466.912    
    199800   141.54258      281.41995     -2248.751       6.1839851     -2242.567      -13000.547    
    199850   137.79994      273.9787      -2248.5752      6.0204694     -2242.5548     -12953.182    
    199900   149.85016      297.93738     -2249.0985      6.5469429     -2242.5515     -11925.329    
    199950   149.6323       297.50422     -2249.0811      6.5374247     -2242.5437     -10834.853    
    200000   152.6673       303.53851     -2249.201       6.6700234     -2242.531      -13240.829    
colvars: Saving collective variables state to "out.colvars.state".
colvars:   Writing TI PMF to file "out.metadynamics1.ti.pmf".
Loop time of 996.419 on 4 procs for 200000 steps with 339 atoms

Performance: 8.671 ns/day, 2.768 hours/ns, 200.719 timesteps/s, 68.044 katom-step/s
138.7% CPU use with 4 MPI tasks x 1 OpenMP threads

MPI task timing breakdown:
Section |  min time  |  avg time  |  max time  |%varavg| %total
---------------------------------------------------------------
Pair    | 748.94     | 852.03     | 964.2      | 301.8 | 85.51
Neigh   | 0.19129    | 1.1932     | 1.9769     |  61.6 |  0.12
Comm    | 11.537     | 108.56     | 187.8      | 702.7 | 10.89
Output  | 4.3178     | 5.1535     | 6.1093     |  36.2 |  0.52
Modify  | 11.279     | 26.921     | 68.78      | 467.0 |  2.70
Other   |            | 2.564      |            |       |  0.26

Nlocal:          84.75 ave         124 max           8 min
Histogram: 1 0 0 0 0 0 0 1 1 1
Nghost:           1146 ave        1659 max         642 min
Histogram: 1 0 0 0 1 1 0 0 0 1
Neighs:              0 ave           0 max           0 min
Histogram: 4 0 0 0 0 0 0 0 0 0
FullNghs:        15000 ave       24613 max         880 min
Histogram: 1 0 0 0 0 1 0 0 1 1

Total # of neighbors = 60000
Ave neighs/atom = 176.99115
Neighbor list builds = 2124
Dangerous builds = 0
write_data final.data
System init for write_data ...
Generated 0 of 6 mixed pair_coeff terms from geometric mixing rule

CITE-CITE-CITE-CITE-CITE-CITE-CITE-CITE-CITE-CITE-CITE-CITE-CITE

Your simulation uses code contributions which should be cited:

- Colvars module (Fiorin2013, plus other works listed for specific features)


% Colvars module:
% Colvars-LAMMPS interface:
% Metadynamics colvar bias implementation:
% Optimal rotation via flexible fitting:
% distance colvar component:

@article{Fiorin2013,
  author = {Fiorin, Giacomo and Klein, Michael L.{} and H\'enin, J\'er\^ome},
  title = {Using collective variables to drive molecular dynamics simulations},
  journal = {Mol. Phys.},
  year = {2013},
  volume = {111},
  number = {22-23},
  pages = {3345--3362},
  publisher = {Taylor & Francis},
  doi = {10.1080/00268976.2013.813594},
  url = {https://doi.org/10.1080/00268976.2013.813594}
}


% Internal-forces free energy estimator:

@article{Henin2010,
  author = {H\'enin, J\'er\^ome and Fiorin, Giacomo and Chipot, Christophe and Klein, Michael L.},
  title = {Exploring multidimensional free energy landscapes using time-dependent biases on collective variables},
  journal = {J. Chem. Theory Comput.},
  year = {2010},
  volume = {6},
  pages = {35-47},
  number = {1},
  doi = {10.1021/ct9004432},
  pmid = {26614317},
  url = {https://doi.org/10.1021/ct9004432}
}


% LAMMPS engine:

@article{Thompson2022,
  title = {{LAMMPS} - a flexible simulation tool for particle-based materials modeling at the atomic, meso, and continuum scales},
  author = {Thompson, Aidan P. and Aktulga, H. Metin and Berger, Richard and Bolintineanu, Dan S. and Brown, W. Michael and Crozier, Paul S. and {in't Veld}, Pieter J. and Kohlmeyer, Axel and Moore, Stan G. and Nguyen, Trung Dac and Shan, Ray and Stevens, Mark J. and Tranchida, Julien and Trott, Christian and Plimpton, Steven J.},
  journal = {Comp. Phys. Comm.},
  volume = {271},
  pages = {108171},
  year = {2022},
  doi = {10.1016/j.cpc.2021.108171},
  url = {https://doi.org/10.1016/j.cpc.2021.108171}
}

CITE-CITE-CITE-CITE-CITE-CITE-CITE-CITE-CITE-CITE-CITE-CITE-CITE

Total wall time: 0:17:00
