LAMMPS (2 Aug 2023)
OMP_NUM_THREADS environment is not set. Defaulting to 1 thread. (src/comm.cpp:98)
  using 1 OpenMP thread(s) per MPI task
Loaded 1 plugins from /work/home/baoergen22b/apprepo/deepmd/v2.2.9-dtk23.10/app/lib/deepmd_lmp
package gpu 4
# system
units        metal
dimension    3
atom_style   atomic
boundary     p p f

# 设置原子映射
atom_modify map array

# initial stucture
read_data POSCAR.lmp
Reading data file ...
  orthogonal box = (0 0 0) to (11.328 12.015 32)
  1 by 1 by 4 MPI processor grid
  reading atoms ...
  338 atoms
  read_data CPU = 0.016 seconds
mass      1 55.845
mass      2 15.999
mass      3 1.008
mass      4  35.450

# potential
pair_style deepmd graph-compress.pb
Summary of lammps deepmd module ...
  >>> Info of deepmd-kit:
  installed to:       /work/home/wys974137909/shangcheng/deepmd-kit/20240715/deepmd-kit_v2.2.9/install
  source:             v2.2.9
  source branch:      HEAD
  source commit:      be43748
  source commit at:   2024-02-04 13:44:12 +0800
  support model ver.: 1.1 
  build variant:      rocm
  build with tf inc:  /work/home/wys974137909/shangcheng/miniconda3/envs/deepmd-kit-v2.2.9/lib/python3.8/site-packages/tensorflow/include;/work/home/wys974137909/shangcheng/miniconda3/envs/deepmd-kit-v2.2.9/lib/python3.8/site-packages/tensorflow/include
  build with tf lib:  /work/home/wys974137909/shangcheng/miniconda3/envs/deepmd-kit-v2.2.9/lib/python3.8/site-packages/tensorflow/lib/libtensorflow_cc.so
  set tf intra_op_parallelism_threads: 0
  set tf inter_op_parallelism_threads: 0
  >>> Info of lammps module:
  use deepmd-kit at:  /work/home/wys974137909/shangcheng/deepmd-kit/20240715/deepmd-kit_v2.2.9/install
  source:             v2.2.9
  source branch:      HEAD
  source commit:      be43748
  source commit at:   2024-02-04 13:44:12 +0800
  build float prec:   double
  build with tf inc:  /work/home/wys974137909/shangcheng/miniconda3/envs/deepmd-kit-v2.2.9/lib/python3.8/site-packages/tensorflow/include;/work/home/wys974137909/shangcheng/miniconda3/envs/deepmd-kit-v2.2.9/lib/python3.8/site-packages/tensorflow/include
  build with tf lib:  /work/home/wys974137909/shangcheng/miniconda3/envs/deepmd-kit-v2.2.9/lib/python3.8/site-packages/tensorflow/lib/libtensorflow_cc.so
pair_coeff * *

# 固定原子受力、速度为 0
group fixed id 1:146  148:168
167 atoms in group fixed
group mobile subtract all fixed
171 atoms in group mobile
fix freeze_fixed fixed setforce 0.0 0.0 0.0
velocity fixed set 0 0 0

# 在z=27处添加硬性反射墙
fix wall1 mobile wall/reflect zhi 27

# 计算mobile组的温度
compute mTemp mobile temp
thermo 50
thermo_style custom step temp c_mTemp pe ke etotal press
velocity mobile  create 298.15 12345 mom yes rot yes

fix ensemble mobile  nvt temp 298.15 298.15 1
fix meta  all colvars pmf.in tstat ensemble
timestep 0.0005
dump trace all custom 1 md.lammpstrj id type x y z
run 200000

CITE-CITE-CITE-CITE-CITE-CITE-CITE-CITE-CITE-CITE-CITE-CITE-CITE

Your simulation uses code contributions which should be cited:

- GPU package (short-range, long-range and three-body potentials): doi:10.1016/j.cpc.2010.12.021, doi:10.1016/j.cpc.2011.10.012, doi:10.1016/j.cpc.2013.08.002, doi:10.1016/j.commatsci.2014.10.068, doi:10.1016/j.cpc.2016.10.020, doi:10.3233/APC200086

@Article{Brown11,
 author = {W. M. Brown and P. Wang and S. J. Plimpton and A. N. Tharrington},
 title = {Implementing Molecular Dynamics on Hybrid High Performance Computers---Short Range Forces},
 journal = {Comput.\ Phys.\ Commun.},
 year =    2011,
 volume =  182,
 pages =   {898--911},
 doi =     {10.1016/j.cpc.2010.12.021}
}

@Article{Brown12,
 author = {W. M. Brown and A. Kohlmeyer and S. J. Plimpton and A. N. Tharrington},
 title = {Implementing Molecular Dynamics on Hybrid High Performance Computers - Particle-Particle Particle-Mesh},
 journal = {Comput.\ Phys.\ Commun.},
 year =    2012,
 volume =  183,
 doi =     {10.1016/j.cpc.2011.10.012},
 pages =   {449--459}
}

@Article{Brown13,
 author = {W. M. Brown and Y. Masako},
 title = {Implementing Molecular Dynamics on Hybrid High Performance Computers---Three-Body Potentials},
 journal = {Comput.\ Phys.\ Commun.},
 year =    2013,
 volume =  184,
 pages =   {2785--2793},
 doi =     {10.1016/j.cpc.2013.08.002},
}

@Article{Trung15,
 author = {T. D. Nguyen and S. J. Plimpton},
 title = {Accelerating Dissipative Particle Dynamics Simulations for Soft Matter Systems},
 journal = {Comput.\ Mater.\ Sci.},
 year =    2015,
 doi =     {10.1016/j.commatsci.2014.10.068},
 volume =  100,
 pages =   {173--180}
}

@Article{Trung17,
 author = {T. D. Nguyen},
 title = {{GPU}-Accelerated {T}ersoff Potentials for Massively Parallel
    Molecular Dynamics Simulations},
 journal = {Comput.\ Phys.\ Commun.},
 year =    2017,
 doi =     {10.1016/j.cpc.2016.10.020},
 volume =  212,
 pages =   {113--122}
}

@inproceedings{Nikolskiy19,
 author = {V. Nikolskiy and V. Stegailov},
 title = {{GPU} Acceleration of Four-Site Water Models in {LAMMPS}},
 booktitle = {Proceedings of the International Conference on Parallel
    Computing (ParCo 2019), Prague, Czech Republic},
 doi =     {10.3233/APC200086},
 year =    2019
}

- USER-DEEPMD package:

@article{Wang_ComputPhysCommun_2018_v228_p178,
  author = {Wang, Han and Zhang, Linfeng and Han, Jiequn and E, Weinan},
  doi = {10.1016/j.cpc.2018.03.016},
  url = {https://doi.org/10.1016/j.cpc.2018.03.016},
  year = 2018,
  month = {jul},
  publisher = {Elsevier {BV}},
  volume = 228,
  journal = {Comput. Phys. Commun.},
  title = {{DeePMD-kit: A deep learning package for many-body potential energy representation and molecular dynamics}},
  pages = {178--184}
}
@misc{Zeng_JChemPhys_2023_v159_p054801,
  title  = {{DeePMD-kit v2: A software package for deep potential models}},
  author =   {Jinzhe Zeng and Duo Zhang and Denghui Lu and Pinghui Mo and Zeyu Li
         and Yixiao Chen and Mari{\'a}n Rynik and Li'ang Huang and Ziyao Li and 
         Shaochen Shi and Yingze Wang and Haotian Ye and Ping Tuo and Jiabin
         Yang and Ye Ding and Yifan Li and Davide Tisi and Qiyu Zeng and Han 
         Bao and Yu Xia and Jiameng Huang and Koki Muraoka and Yibo Wang and 
         Junhan Chang and Fengbo Yuan and Sigbj{\o}rn L{\o}land Bore and Chun
         Cai and Yinnian Lin and Bo Wang and Jiayan Xu and Jia-Xin Zhu and 
         Chenxing Luo and Yuzhi Zhang and Rhys E A Goodall and Wenshuo Liang
         and Anurag Kumar Singh and Sikai Yao and Jingchao Zhang and Renata
         Wentzcovitch and Jiequn Han and Jie Liu and Weile Jia and Darrin M
         York and Weinan E and Roberto Car and Linfeng Zhang and Han Wang},
  journal =  {J. Chem. Phys.},
  volume =   159,
  issue =    5,  
  year =    2023,
  pages  =   054801,
  doi =      {10.1063/5.0155600},
}

CITE-CITE-CITE-CITE-CITE-CITE-CITE-CITE-CITE-CITE-CITE-CITE-CITE

Generated 0 of 6 mixed pair_coeff terms from geometric mixing rule
Neighbor list info ...
  update: every = 1 steps, delay = 0 steps, check = yes
  max neighbors/atom: 2000, page size: 100000
  master list distance cutoff = 8
  ghost atom cutoff = 8
  binsize = 4, bins = 3 4 8
  1 neighbor lists, perpetual/occasional/extra = 1 0 0
  (1) pair deepmd, perpetual
      attributes: full, newton on
      pair build: full/bin/atomonly
      stencil: full/bin/3d
      bin: standard
colvars: Creating proxy instance
colvars: ----------------------------------------------------------------------
colvars: Initializing the collective variables module, version 2023-05-01.
colvars: Please cite Fiorin et al, Mol Phys 2013:
colvars:   https://doi.org/10.1080/00268976.2013.813594
colvars: as well as all other papers listed below for individual features used.
colvars: This version was built with the C++11 standard or higher.
colvars: Using LAMMPS interface, version "2023-04-12".
colvars: ----------------------------------------------------------------------
colvars: Reading new configuration from file "pmf.in":
colvars: # units = "" [default]
colvars: # smp = on [default]
colvars: # colvarsTrajFrequency = 100 [default]
colvars: # colvarsRestartFrequency = 0 [default]
colvars: # scriptedColvarForces = off [default]
colvars: # scriptingAfterBiases = off [default]
colvars: ----------------------------------------------------------------------
colvars:   Initializing a new collective variable.
colvars:   # name = "d"
colvars:   Initializing a new "distanceZ" component.
colvars:     # name = "" [default]
colvars:     # componentCoeff = 1 [default]
colvars:     # componentExp = 1 [default]
colvars:     # period = 0 [default]
colvars:     # wrapAround = 0 [default]
colvars:     # forceNoPBC = off [default]
colvars:     # scalable = on [default]
colvars:       Initializing atom group "main".
colvars:       # name = "" [default]
colvars:       # centerToOrigin = off [default]
colvars:       # centerToReference = off [default]
colvars:       # rotateToReference = off [default]
colvars:       # atomsOfGroup = "" [default]
colvars:       # indexGroup = "" [default]
colvars:       # psfSegID =  [default]
colvars:       # atomsFile = "" [default]
colvars:       # dummyAtom = ( 0 , 0 , 0 ) [default]
colvars:       # enableFitGradients = on [default]
colvars:       # printAtomIDs = off [default]
colvars:       Atom group "main" defined with 1 atoms requested.
colvars:       Initializing atom group "ref".
colvars:       # name = "" [default]
colvars:       # centerToOrigin = off [default]
colvars:       # centerToReference = off [default]
colvars:       # rotateToReference = off [default]
colvars:       # atomsOfGroup = "" [default]
colvars:       # indexGroup = "" [default]
colvars:       # psfSegID =  [default]
colvars:       # atomsFile = "" [default]
colvars:       # dummyAtom = ( 0 , 0 , 0 ) [default]
colvars:       # enableFitGradients = on [default]
colvars:       # printAtomIDs = off [default]
colvars:       Atom group "ref" defined with 22 atoms requested.
colvars:     # axis = ( 0 , 0 , 1 ) [default]
colvars:     # oneSiteSystemForce = off [default]
colvars:     # oneSiteTotalForce = off [default]
colvars:   All components initialized.
colvars:   # timeStepFactor = 1 [default]
colvars:   # width = 0.05
colvars:   # lowerBoundary = -0.2
colvars:   # upperBoundary = 6
colvars:   # hardLowerBoundary = on
colvars:   # hardUpperBoundary = off [default]
colvars:   # expandBoundaries = off [default]
colvars:   # extendedLagrangian = off [default]
colvars:   # outputValue = on [default]
colvars:   # outputVelocity = off [default]
colvars:   # outputTotalForce = on
colvars:   # outputAppliedForce = on
colvars:   # subtractAppliedForce = off [default]
colvars:   # runAve = off [default]
colvars:   # corrFunc = off [default]
colvars: ----------------------------------------------------------------------
colvars: Collective variables initialized, 1 in total.
colvars: ----------------------------------------------------------------------
colvars:   Initializing a new "metadynamics" instance.
colvars:   # name = "metadynamics1" [default]
colvars:   # colvars = { d }
colvars:   # stepZeroData = off [default]
colvars:   # outputEnergy = off [default]
colvars:   # outputFreq = 0 [default]
colvars:   # timeStepFactor = 1 [default]
colvars:   # writeTISamples = on
colvars:   # writeTIPMF = on
colvars:   # hillWeight = 0.1
colvars:   # newHillFrequency = 300
colvars:   # gaussianSigmas =  [default]
colvars:   # hillWidth = 1
colvars:   Half-widths of the Gaussian hills (sigma's):
colvars:   d: 0.025
colvars:   # multipleReplicas = off [default]
colvars:   # useGrids = on [default]
colvars:   # gridsUpdateFrequency = 300 [default]
colvars:   # rebinGrids = off [default]
colvars:   # writeFreeEnergyFile = on [default]
colvars:   # keepHills = off [default]
colvars:   # keepFreeEnergyFiles = off [default]
colvars:   # writeHillsTrajectory = off [default]
colvars:   # wellTempered = off [default]
colvars:   # biasTemperature = 800
colvars:   # ebMeta = off [default]
colvars: ----------------------------------------------------------------------
colvars: Collective variables biases initialized, 1 in total.
colvars: ----------------------------------------------------------------------
colvars: Collective variables module (re)initialized.
colvars: ----------------------------------------------------------------------
colvars: Re-initialized atom group for variable "d":0/0. 1 atoms: total mass = 55.845, total charge = 2.37646e-321.
colvars: Re-initialized atom group for variable "d":0/1. 22 atoms: total mass = 1228.59, total charge = 1.1697e+214.
colvars: The restart output state file will be "rest.colvars.state".
colvars: The final output state file will be "out.colvars.state".
Per MPI rank memory allocation (min/avg/max) = 3.132 | 3.155 | 3.171 Mbytes
   Step          Temp         c_mTemp         PotEng         KinEng         TotEng         Press     
         0   150.40208      298.15        -2338.2108      6.5516151     -2331.6592     -12178.041    
        50   163.99746      325.10084     -2338.805       7.1438389     -2331.6612     -11862.191    
       100   155.95433      309.15652     -2338.4536      6.7934748     -2331.6601     -10815.969    
       150   148.13808      293.66197     -2338.1166      6.452994      -2331.6637     -8199.0896    
       200   152.82226      302.94765     -2338.327       6.6570398     -2331.67       -10065.284    
       250   166.4435       329.94976     -2338.927       7.2503901     -2331.6766     -12810.32     
       300   169.60033      336.2077      -2339.0652      7.3879036     -2331.6773     -10265.85     
       350   156.74752      310.7289      -2338.5155      6.8280266     -2331.6874     -11825.307    
       400   165.90223      328.87677     -2338.8549      7.226812      -2331.6281     -12401.817    
       450   157.43286      312.0875      -2338.4953      6.8578809     -2331.6374     -12601.966    
       500   168.48503      333.99679     -2338.9806      7.3393205     -2331.6413     -11743.409    
       550   153.02444      303.34846     -2338.3045      6.6658471     -2331.6386     -10500.657    
       600   158.60419      314.40949     -2338.5676      6.9089048     -2331.6587     -11950.401    
       650   155.95764      309.16309     -2338.3494      6.7936191     -2331.5558     -12959.509    
       700   159.30731      315.80332     -2338.489       6.9395332     -2331.5495     -12198.988    
       750   151.80395      300.929       -2338.1739      6.6126814     -2331.5612     -8326.2732    
       800   151.88153      301.08279     -2338.1766      6.6160608     -2331.5605     -11346.124    
       850   160.12744      317.42909     -2338.5977      6.9752582     -2331.6225     -11257.518    
       900   145.06009      287.56029     -2337.9811      6.3189144     -2331.6621     -9567.3406    
       950   161.16596      319.48782     -2338.5255      7.020497      -2331.505      -12251.316    
      1000   148.47128      294.32248     -2337.981       6.4675083     -2331.5135     -13455.333    
      1050   154.34528      305.96683     -2338.252       6.7233839     -2331.5286     -10292.289    
      1100   166.78118      330.61916     -2338.8048      7.2650996     -2331.5397     -9496.5082    
      1150   169.46582      335.94107     -2338.9969      7.3820446     -2331.6149     -10948.066    
      1200   160.27244      317.71654     -2338.5383      6.9815747     -2331.5567     -11696.515    
      1250   159.74894      316.67877     -2338.4624      6.9587705     -2331.5036     -9443.7664    
      1300   146.90057      291.20878     -2337.9051      6.3990871     -2331.506      -10939.927    
      1350   155.24493      307.75025     -2338.3341      6.7625731     -2331.5715     -11746.233    
      1400   153.66511      304.61849     -2338.247       6.6937552     -2331.5533     -11338.319    
      1450   166.5003       330.06235     -2338.8117      7.2528643     -2331.5588     -12342.722    
      1500   156.53362      310.30488     -2338.4096      6.8187091     -2331.5909     -11225.52     
      1550   156.58397      310.40469     -2338.3696      6.8209024     -2331.5487     -12308.673    
      1600   182.88044      362.53358     -2339.6328      7.9663944     -2331.6664     -12193.269    
      1650   165.87573      328.82424     -2338.7731      7.2256577     -2331.5475     -13096.522    
      1700   153.40367      304.10022     -2338.2364      6.6823665     -2331.554      -9938.2173    
      1750   156.88374      310.99895     -2338.4216      6.8339608     -2331.5876     -13380.752    
      1800   142.66737      282.81708     -2337.9258      6.2146861     -2331.7111     -11949.916    
      1850   160.26838      317.7085      -2338.5716      6.9813979     -2331.5902     -9426.9062    
      1900   139.59187      276.72036     -2337.6072      6.0807154     -2331.5264     -12736.677    
      1950   148.36664      294.11505     -2338.0192      6.4629503     -2331.5562     -12710.698    
      2000   153.93824      305.15993     -2338.3755      6.7056528     -2331.6698     -10934.659    
      2050   150.39656      298.13907     -2338.3458      6.5513749     -2331.7944     -10646.819    
      2100   165.97261      329.0163      -2338.8929      7.229878      -2331.663      -11907.485    
      2150   149.07042      295.51019     -2338.1049      6.4936073     -2331.6113     -12401.907    
      2200   165.07534      327.23758     -2338.8254      7.1907922     -2331.6346     -12785.815    
      2250   150.96382      299.26358     -2338.2533      6.5760851     -2331.6772     -13149.308    
      2300   161.33717      319.82721     -2338.8211      7.0279551     -2331.7932     -11978.612    
      2350   156.95128      311.13284     -2338.5794      6.8369029     -2331.7425     -11383.146    
      2400   158.77969      314.75738     -2338.6119      6.9165493     -2331.6954     -12712.126    
      2450   158.37139      313.94799     -2338.6246      6.8987637     -2331.7258     -11538.636    
      2500   163.33216      323.78198     -2338.9003      7.1148581     -2331.7855     -10946.37     
      2550   153.28465      303.86428     -2338.6603      6.6771819     -2331.9831     -10366.972    
      2600   155.33029      307.91946     -2338.7686      6.7662914     -2332.0023     -10781.028    
      2650   159.74722      316.67538     -2338.899       6.9586959     -2331.9403     -11175.63     
      2700   155.72892      308.70969     -2338.6713      6.7836561     -2331.8876     -8484.2128    
      2750   164.38219      325.86352     -2339.0768      7.1605982     -2331.9162     -11088.302    
      2800   151.04747      299.4294      -2338.572       6.5797288     -2331.9923     -12077.875    
      2850   148.31633      294.01531     -2338.5232      6.4607585     -2332.0624     -9108.6963    
      2900   157.93561      313.08411     -2338.8452      6.8797807     -2331.9655     -8899.2472    
      2950   167.54843      332.14012     -2339.357       7.2985217     -2332.0585     -13301.789    
      3000   168.67947      334.38225     -2339.4242      7.3477907     -2332.0764     -9076.9238    
      3050   160.43065      318.03018     -2339.1273      6.9884665     -2332.1389     -10753.7      
      3100   143.57342      284.61319     -2338.4734      6.2541543     -2332.2193     -9915.384     
      3150   151.9599       301.23815     -2338.918       6.6194748     -2332.2986     -11032.752    
      3200   160.67324      318.51108     -2339.1546      6.9990339     -2332.1556     -10845.25     
      3250   139.78219      277.09764     -2338.306       6.0890058     -2332.217      -10247.443    
      3300   141.08988      279.68994     -2338.389       6.1459696     -2332.243      -11210.463    
      3350   153.23944      303.77466     -2338.969       6.6752126     -2332.2938     -12381.205    
      3400   144.92929      287.301       -2338.6256      6.3132168     -2332.3124     -13267.977    
      3450   161.58863      320.3257      -2339.3066      7.038909      -2332.2677     -8436.1126    
      3500   147.89441      293.17893     -2338.8023      6.4423796     -2332.3599     -12536.992    
      3550   149.42321      296.20953     -2338.8779      6.5089748     -2332.3689     -8446.1658    
      3600   140.4904       278.50156     -2338.5194      6.1198559     -2332.3996     -10805.703    
      3650   164.99953      327.08731     -2339.5424      7.1874899     -2332.3549     -11284.312    
      3700   162.79728      322.72167     -2339.4448      7.0915586     -2332.3532     -10215.928    
      3750   153.72449      304.7362      -2339.0503      6.6963416     -2332.3539     -10632.307    
      3800   157.84871      312.91186     -2339.244       6.8759956     -2332.368      -12365.938    
      3850   166.31194      329.68896     -2339.6324      7.2446593     -2332.3878     -9711.915     
      3900   147.45297      292.30383     -2338.992       6.42315       -2332.5689     -12485.99     
      3950   144.97016      287.38203     -2338.7516      6.3149973     -2332.4366     -10790.168    
      4000   145.4045       288.24303     -2338.7339      6.3339171     -2332.4        -12295.581    
      4050   133.74701      265.13378     -2338.2314      5.8261092     -2332.4053     -10704.559    
      4100   149.28131      295.92825     -2338.8219      6.5027938     -2332.3191     -10833.304    
      4150   146.23714      289.89362     -2338.8517      6.3701876     -2332.4815     -12840.626    
      4200   151.51923      300.36459     -2338.9691      6.6002789     -2332.3688     -13539.846    
      4250   142.42848      282.34353     -2338.523       6.2042801     -2332.3187     -10269.254    
      4300   154.83907      306.94569     -2339.0839      6.7448936     -2332.339      -12912.711    
      4350   145.67475      288.77877     -2338.726       6.3456895     -2332.3803     -12071.303    
      4400   158.89194      314.9799      -2339.2994      6.9214392     -2332.378      -9565.8467    
      4450   152.49849      302.30583     -2339.0871      6.6429362     -2332.4442     -11904.788    
      4500   149.23753      295.84146     -2338.9524      6.5008867     -2332.4515     -10247.581    
      4550   155.01477      307.29399     -2339.2297      6.7525472     -2332.4772     -12448.437    
      4600   154.12017      305.52056     -2339.3325      6.7135775     -2332.6189     -10076.84     
      4650   148.8401       295.05361     -2338.9042      6.4835743     -2332.4206     -10412.124    
      4700   128.4081       254.55017     -2338.0667      5.5935427     -2332.4732     -12249.46     
      4750   140.98698      279.48596     -2338.6477      6.1414872     -2332.5062     -13636.466    
      4800   144.80559      287.05578     -2338.8072      6.3078283     -2332.4994     -11021.806    
      4850   157.14038      311.5077      -2339.3042      6.8451401     -2332.4591     -11460.223    
      4900   143.2911       284.05354     -2338.7057      6.2418562     -2332.4638     -10461.66     
      4950   155.01092      307.28636     -2339.2328      6.7523795     -2332.4804     -10460.35     
      5000   138.70333      274.95895     -2338.6205      6.0420097     -2332.5784     -9142.8608    
      5050   154.05578      305.39293     -2339.1513      6.7107729     -2332.4406     -10037.708    
      5100   145.74852      288.92502     -2338.786       6.3489032     -2332.4371     -11168.667    
      5150   146.67104      290.75377     -2338.6857      6.3890887     -2332.2966     -12886.16     
      5200   149.53894      296.43896     -2338.8157      6.5140164     -2332.3017     -12949.965    
      5250   147.90796      293.20578     -2338.9034      6.4429697     -2332.4605     -11179.055    
      5300   153.0213       303.34222     -2339.1695      6.6657102     -2332.5038     -11083.18     
      5350   152.78511      302.87402     -2339.0889      6.6554217     -2332.4335     -8232.5255    
      5400   144.49229      286.43472     -2338.6851      6.2941808     -2332.3909     -11713.674    
      5450   154.3671       306.01007     -2339.125       6.7243341     -2332.4007     -8849.7094    
      5500   156.27785      309.79786     -2339.1324      6.8075678     -2332.3249     -11241.13     
      5550   161.2681       319.69029     -2339.3811      7.0249463     -2332.3562     -9341.2838    
      5600   153.72869      304.74451     -2339.1091      6.6965244     -2332.4126     -11398.947    
      5650   153.60287      304.4951      -2339.0796      6.6910438     -2332.3886     -8618.3154    
      5700   156.19382      309.63128     -2339.247       6.8039072     -2332.4431     -9394.2517    
      5750   152.31174      301.93563     -2338.9658      6.6348013     -2332.331      -9241.6718    
      5800   151.28218      299.89467     -2338.9244      6.5899528     -2332.3344     -8397.9409    
      5850   160.03749      317.25079     -2339.305       6.9713401     -2332.3337     -11016.868    
      5900   157.48375      312.18837     -2339.3274      6.8600973     -2332.4673     -10685.815    
      5950   144.58383      286.61619     -2338.5646      6.2981685     -2332.2665     -9498.4626    
      6000   147.98653      293.36152     -2338.704       6.446392      -2332.2576     -11687.769    
      6050   151.17174      299.67575     -2338.9525      6.5851423     -2332.3673     -10163.225    
      6100   163.76828      324.64653     -2339.3805      7.1338558     -2332.2467     -11543.215    
      6150   154.01418      305.31046     -2338.9598      6.7089606     -2332.2508     -10770.488    
      6200   162.09661      321.33268     -2339.3126      7.0610366     -2332.2516     -10934.47     
      6250   156.69868      310.6321      -2339.2029      6.8258995     -2332.377      -11215.4      
      6300   149.57912      296.51861     -2338.7021      6.5157665     -2332.1863     -15708.033    
      6350   149.15458      295.67703     -2338.5652      6.4972734     -2332.068      -13417.395    
      6400   139.59155      276.71971     -2338.1431      6.0807011     -2332.0624     -11362.706    
      6450   142.57581      282.63557     -2338.2785      6.2106975     -2332.0678     -13277.017    
      6500   150.24506      297.83874     -2338.6178      6.5447753     -2332.0731     -10837.071    
      6550   144.02166      285.50175     -2338.5128      6.2736797     -2332.2392     -14375.084    
      6600   169.45245      335.91455     -2339.4703      7.3814619     -2332.0888     -11568.486    
      6650   147.93561      293.26059     -2338.4647      6.4441741     -2332.0205     -11016.832    
      6700   155.85523      308.96008     -2338.8361      6.7891581     -2332.047      -10818.942    
      6750   153.76389      304.8143      -2338.7545      6.6980579     -2332.0564     -12099.284    
      6800   158.623        314.44676     -2339.0287      6.9097239     -2332.119      -9644.4157    
      6850   156.21254      309.66838     -2339.0636      6.8047225     -2332.2589     -11579.65     
      6900   150.40744      298.16063     -2338.684       6.5518487     -2332.1322     -8451.0766    
      6950   153.90894      305.10184     -2338.757       6.7043763     -2332.0526     -9072.7303    
      7000   153.7022       304.69201     -2338.6249      6.6953707     -2331.9295     -13406.765    
      7050   159.99155      317.15972     -2338.9134      6.9693389     -2331.944      -12739.38     
      7100   167.13037      331.31138     -2339.3607      7.2803107     -2332.0804     -12303.063    
      7150   150.99098      299.31741     -2338.7013      6.5772681     -2332.124      -13497.059    
      7200   161.79595      320.73668     -2339.1071      7.0479398     -2332.0591     -13620.559    
      7250   154.08763      305.45607     -2338.7036      6.7121604     -2331.9914     -9385.0813    
      7300   149.86723      297.08975     -2338.5307      6.5283169     -2332.0024     -8282.3316    
      7350   170.84798      338.681       -2339.4582      7.4422524     -2332.0159     -9039.4483    
      7400   158.57275      314.34715     -2339.0755      6.9075349     -2332.168      -11277.933    
      7450   164.145        325.39333     -2339.291       7.1502662     -2332.1407     -10152.561    
      7500   152.31031      301.9328      -2338.6035      6.6347391     -2331.9688     -11266.01     
      7550   147.91262      293.21502     -2338.3736      6.4431727     -2331.9304     -12476.055    
      7600   133.34618      264.3392      -2337.7433      5.8086489     -2331.9346     -8865.9136    
      7650   143.68794      284.84021     -2338.2675      6.2591427     -2332.0083     -10722.988    
      7700   156.98774      311.2051      -2338.9298      6.8384908     -2332.0913     -12009.784    
      7750   144.14377      285.74382     -2338.4501      6.2789989     -2332.1711     -7211.1165    
      7800   159.5179       316.22078     -2338.9788      6.9487065     -2332.0301     -11271.658    
      7850   144.0475       285.55298     -2338.318       6.2748054     -2332.0432     -10817.713    
      7900   164.25122      325.60389     -2339.2204      7.154893      -2332.0655     -10830.713    
      7950   148.74257      294.86027     -2338.7208      6.4793258     -2332.2415     -10301.7      
      8000   151.76026      300.84239     -2338.8546      6.6107784     -2332.2438     -11312.144    
      8050   141.14193      279.79313     -2338.34        6.1482371     -2332.1918     -8803.1508    
      8100   145.65558      288.74077     -2338.603       6.3448545     -2332.2582     -10759.81     
      8150   157.36636      311.95568     -2339.0212      6.8549841     -2332.1662     -12092.786    
      8200   160.34445      317.8593      -2339.0184      6.9847116     -2332.0336     -12938.151    
      8250   142.43704      282.36048     -2338.2542      6.2046525     -2332.0495     -12255.852    
      8300   143.26268      283.99719     -2338.3043      6.2406181     -2332.0637     -12144.87     
      8350   144.67657      286.80002     -2338.5687      6.302208      -2332.2665     -12262.12     
      8400   160.46261      318.09353     -2339.3865      6.9898587     -2332.3967     -10759.804    
      8450   165.72676      328.52894     -2339.1882      7.2191687     -2331.969      -12442.173    
      8500   148.07834      293.54354     -2338.4312      6.4503917     -2331.9808     -11541.962    
      8550   145.11072      287.66065     -2338.3018      6.3211199     -2331.9807     -12106.906    
      8600   156.06782      309.3815      -2338.8323      6.7984186     -2332.0339     -13366.941    
      8650   159.59808      316.37971     -2339.0337      6.9521989     -2332.0815     -13662.252    
      8700   157.62828      312.47488     -2339.1462      6.8663932     -2332.2798     -8914.0578    
      8750   150.78956      298.91812     -2338.581       6.568494      -2332.0125     -12633.942    
      8800   147.82915      293.04956     -2338.4864      6.4395368     -2332.0469     -10889.55     
      8850   143.9856       285.43028     -2338.3297      6.2721092     -2332.0576     -9964.6791    
      8900   174.72367      346.36398     -2339.7173      7.6110798     -2332.1062     -10328.922    
      8950   166.62046      330.30056     -2339.4991      7.2580987     -2332.241      -12457.989    
      9000   156.01113      309.26913     -2338.8535      6.7959494     -2332.0575     -9685.0224    
      9050   149.88755      297.13002     -2338.54        6.5292018     -2332.0108     -12437.427    
      9100   146.85332      291.11512     -2338.4307      6.397029      -2332.0336     -11029.429    
      9150   154.10866      305.49776     -2338.771       6.7130765     -2332.058      -13906.573    
      9200   157.03258      311.294       -2338.9893      6.8404443     -2332.1489     -10257.061    
      9250   163.52803      324.17027     -2339.3246      7.1233903     -2332.2012     -14071.388    
      9300   164.3682       325.83579     -2339.3216      7.1599888     -2332.1617     -11884.13     
      9350   146.87487      291.15783     -2338.5835      6.3979676     -2332.1855     -7664.4088    
      9400   160.02097      317.21803     -2339.1736      6.9706204     -2332.203      -12173.892    
      9450   155.89635      309.0416      -2339.0687      6.7909495     -2332.2777     -12301.815    
      9500   153.42652      304.14552     -2338.9543      6.683362      -2332.2709     -11783.735    
      9550   146.06116      289.54477     -2338.4855      6.3625219     -2332.123      -11660.165    
      9600   143.89837      285.25735     -2338.4063      6.2683092     -2332.138      -9902.2748    
      9650   143.4456       284.3598      -2338.3675      6.2485861     -2332.1189     -15521.644    
      9700   147.65941      292.71307     -2338.6251      6.4321428     -2332.193      -10751.98     
      9750   153.52529      304.34131     -2338.8231      6.6876643     -2332.1354     -11285.838    
      9800   153.78644      304.859       -2339.0076      6.6990401     -2332.3086     -8469.0485    
      9850   155.52375      308.30297     -2339.1057      6.7747188     -2332.3309     -11416.015    
      9900   140.61202      278.74265     -2338.3669      6.1251537     -2332.2418     -12254.906    
      9950   132.68542      263.02932     -2337.9082      5.7798655     -2332.1284     -13151.504    
     10000   134.56577      266.75684     -2338           5.8617748     -2332.1382     -9016.594     
     10050   152.81671      302.93666     -2338.9195      6.6567982     -2332.2627     -13713.672    
     10100   167.92357      332.88379     -2339.6699      7.3148631     -2332.355      -9093.2594    
     10150   149.28411      295.93379     -2338.9865      6.5029156     -2332.4835     -12925.437    
     10200   155.99264      309.23246     -2339.1936      6.7951436     -2332.3984     -11586.002    
     10250   139.75698      277.04767     -2338.4896      6.0879076     -2332.4017     -10250.375    
     10300   152.98306      303.26641     -2339.082       6.6640442     -2332.418      -11695.554    
     10350   151.19233      299.71655     -2339.0521      6.5860389     -2332.466      -9458.2721    
     10400   156.82924      310.8909      -2339.349       6.8315866     -2332.5174     -13646.93     
     10450   160.09596      317.3667      -2339.2124      6.9738871     -2332.2385     -11145.277    
     10500   132.13698      261.94213     -2338.2295      5.7559752     -2332.4735     -9889.1674    
     10550   149.425        296.2131      -2338.9954      6.5090531     -2332.4864     -11278.435    
     10600   150.795        298.92891     -2339.0332      6.568731      -2332.4645     -14147.457    
     10650   158.82378      314.84478     -2339.4703      6.91847       -2332.5519     -8758.4225    
     10700   142.66521      282.81279     -2338.611       6.2145919     -2332.3964     -13937.11     
     10750   143.89461      285.24991     -2338.5902      6.2681456     -2332.322      -12076.274    
     10800   150.99804      299.33141     -2338.9002      6.5775756     -2332.3226     -10311.922    
     10850   155.08733      307.43783     -2339.0779      6.755708      -2332.3222     -10650.164    
     10900   153.6864       304.66068     -2339.1957      6.6946823     -2332.501      -11170.447    
     10950   145.31265      288.06097     -2338.9165      6.3299164     -2332.5866     -10371.422    
     11000   153.66453      304.61733     -2339.2896      6.6937297     -2332.5959     -9206.3808    
     11050   156.85563      310.94322     -2339.4424      6.8327362     -2332.6097     -12252.223    
     11100   149.33834      296.04129     -2339.1108      6.5052778     -2332.6056     -9932.3666    
     11150   157.29342      311.81108     -2339.298       6.8518067     -2332.4462     -12134.825    
     11200   157.39012      312.00277     -2339.2349      6.856019      -2332.3789     -13078.572    
     11250   141.47592      280.45521     -2338.5078      6.1627858     -2332.345      -11823.021    
     11300   142.3631       282.21391     -2338.5471      6.2014319     -2332.3457     -13712.373    
     11350   151.99546      301.30864     -2339.02        6.6210237     -2332.3989     -10438.767    
     11400   158.10766      313.42518     -2339.5239      6.8872752     -2332.6366     -11386.973    
     11450   161.5298       320.20907     -2339.4136      7.036346      -2332.3773     -11910.023    
     11500   147.00311      291.41204     -2338.791       6.4035536     -2332.3875     -11234.247    
     11550   134.26741      266.1654      -2338.396       5.8487782     -2332.5472     -10987.253    
     11600   138.91766      275.38384     -2338.5875      6.0513463     -2332.5361     -11857.885    
     11650   151.84998      301.02025     -2339.061       6.6146866     -2332.4463     -14090.759    
     11700   150.56259      298.46819     -2339.0604      6.558607      -2332.5018     -12888.164    
     11750   137.80547      273.17907     -2338.5887      6.0028983     -2332.5858     -10482.743    
     11800   147.3926       292.18414     -2338.8267      6.42052       -2332.4062     -10855.007    
     11850   140.95817      279.42883     -2338.4927      6.140232      -2332.3525     -13251.001    
     11900   152.81355      302.9304      -2339.0934      6.6566606     -2332.4368     -12855.643    
     11950   150.8857       299.10871     -2338.9763      6.572682      -2332.4036     -11361.378    
     12000   145.40416      288.24236     -2338.9387      6.3339024     -2332.6048     -10624.531    
     12050   155.65087      308.55497     -2339.3458      6.7802561     -2332.5656     -8500.7572    
     12100   149.9613       297.27623     -2339.1225      6.5324146     -2332.5901     -11692.636    
     12150   141.49702      280.49703     -2338.7674      6.1637048     -2332.6037     -8678.6901    
     12200   144.30683      286.06707     -2338.7569      6.2861021     -2332.4708     -11652.068    
     12250   139.99699      277.52344     -2339.0099      6.0983625     -2332.9115     -12629.273    
     12300   144.23378      285.92225     -2338.7271      6.2829197     -2332.4442     -12167.778    
     12350   137.73972      273.04874     -2338.2785      6.0000343     -2332.2785     -14140.768    
     12400   141.11929      279.74823     -2338.4149      6.1472505     -2332.2677     -11300.538    
     12450   146.59319      290.59943     -2338.6709      6.3856972     -2332.2852     -11242.714    
     12500   147.11544      291.63473     -2338.74        6.4084471     -2332.3315     -11206.733    
     12550   149.69646      296.75123     -2338.8998      6.5208781     -2332.3789     -11873.144    
     12600   143.00421      283.48481     -2338.9381      6.2293589     -2332.7088     -10368.478    
     12650   153.2303       303.75653     -2338.9913      6.6748143     -2332.3165     -9959.2276    
     12700   148.46911      294.31818     -2338.966       6.4674139     -2332.4986     -9546.6996    
     12750   141.64184      280.78411     -2338.6675      6.1700131     -2332.4975     -8742.259     
     12800   147.71257      292.81844     -2338.7273      6.4344581     -2332.2928     -7913.2165    
     12850   156.52066      310.27918     -2339.611       6.8181444     -2332.7928     -13691.061    
     12900   166.68803      330.4345      -2339.8425      7.261042      -2332.5814     -10764.549    
     12950   139.31727      276.17599     -2338.5344      6.0687533     -2332.4656     -10207.092    
     13000   157.85233      312.91904     -2339.3501      6.8761532     -2332.4739     -8723.1183    
     13050   166.36356      329.79129     -2339.7088      7.2469079     -2332.4619     -8846.9564    
     13100   144.41335      286.27823     -2338.7521      6.2907422     -2332.4614     -10196.099    
     13150   153.53865      304.36779     -2339.053       6.6882463     -2332.3647     -13022.967    
     13200   165.51749      328.11408     -2339.5592      7.2100525     -2332.3492     -9669.3598    
     13250   133.43293      264.51115     -2338.1815      5.8124275     -2332.3691     -8873.8944    
     13300   152.73082      302.76639     -2339.0298      6.6530568     -2332.3768     -8063.5576    
     13350   162.12227      321.38357     -2339.5231      7.0621547     -2332.461      -11924.692    
     13400   152.9841       303.26849     -2339.1252      6.6640899     -2332.4611     -12755.376    
     13450   160.07701      317.32914     -2339.1607      6.9730618     -2332.1876     -14004.295    
     13500   147.35413      292.10789     -2338.5646      6.4188444     -2332.1457     -12642.613    
     13550   146.01557      289.4544      -2338.444       6.3605359     -2332.0835     -13465.415    
     13600   154.31682      305.91041     -2338.8864      6.7221441     -2332.1643     -14983.962    
     13650   162.43336      322.00024     -2339.3476      7.0757056     -2332.2719     -13148.05     
     13700   150.43719      298.2196      -2339.2823      6.5531446     -2332.7291     -12501.13     
     13750   176.15674      349.20484     -2339.7606      7.6735056     -2332.0871     -10872.195    
     13800   162.81112      322.74911     -2339.452       7.0921614     -2332.3598     -10382.779    
     13850   154.10362      305.48777     -2339.0734      6.7128568     -2332.3605     -9235.5602    
     13900   155.82185      308.8939      -2339.0444      6.7877039     -2332.2567     -8346.2089    
     13950   150.45715      298.25918     -2338.8654      6.5540142     -2332.3114     -9026.6318    
     14000   160.84003      318.8417      -2339.4799      7.0062993     -2332.4736     -9504.1181    
     14050   154.12563      305.53139     -2339.0494      6.7138155     -2332.3356     -10972.745    
     14100   141.18403      279.87658     -2338.4825      6.1500709     -2332.3325     -8612.9456    
     14150   155.72865      308.70915     -2339.1078      6.7836442     -2332.3242     -7843.3508    
     14200   133.2126       264.07439     -2338.2479      5.8028301     -2332.4451     -13839.442    
     14250   156.9812       311.19214     -2339.1632      6.8382059     -2332.325      -11342.981    
     14300   176.62247      350.12806     -2339.7959      7.6937928     -2332.1021     -9690.1877    
     14350   160.02248      317.22103     -2339.3069      6.9706862     -2332.3362     -10061.181    
     14400   155.90731      309.0633      -2339.1268      6.7914265     -2332.3354     -12414.48     
     14450   158.80291      314.80341     -2339.4286      6.917561      -2332.511      -10523.623    
     14500   165.08472      327.25618     -2339.5601      7.1912008     -2332.3689     -12088.744    
     14550   146.06519      289.55276     -2338.4739      6.3626975     -2332.1112     -12012.796    
     14600   163.43326      323.9824      -2339.3277      7.1192621     -2332.2084     -13141.341    
     14650   152.10547      301.52673     -2338.8239      6.6258161     -2332.1981     -12953.991    
     14700   145.20141      287.84045     -2338.6102      6.3250707     -2332.2851     -11733.644    
     14750   155.84077      308.93141     -2339.4854      6.7885282     -2332.6968     -10848.417    
     14800   154.82349      306.9148      -2338.9105      6.7442147     -2332.1663     -10453.741    
     14850   144.61818      286.68427     -2338.6437      6.2996645     -2332.344      -8010.3006    
     14900   163.95205      325.01084     -2339.4949      7.1418612     -2332.353      -10620.495    
     14950   171.9555       340.87648     -2339.8175      7.4904964     -2332.327      -9068.8463    
     15000   149.0731       295.51549     -2339.0885      6.4937237     -2332.5948     -10828.749    
     15050   156.51117      310.26038     -2339.1671      6.8177313     -2332.3494     -12014.153    
     15100   169.18793      335.3902      -2339.7039      7.3699396     -2332.3339     -10172.817    
     15150   132.87128      263.39778     -2338.1238      5.787962      -2332.3359     -7598.51      
     15200   162.94473      323.01396     -2339.2357      7.0979813     -2332.1378     -10853.023    
     15250   154.38705      306.04963     -2339.2951      6.7252033     -2332.5699     -13108.636    
     15300   164.673        326.44001     -2339.6475      7.1732662     -2332.4742     -11623.01     
     15350   161.65284      320.45298     -2339.3779      7.0417058     -2332.3362     -10328.549    
     15400   146.14269      289.7064      -2338.708       6.3660735     -2332.3419     -9720.6225    
     15450   167.4004       331.84667     -2339.6377      7.2920732     -2332.3456     -9392.4054    
     15500   155.01887      307.30211     -2339.0961      6.7527255     -2332.3434     -14002.181    
     15550   151.48609      300.2989      -2338.8625      6.5988356     -2332.2637     -13162.605    
     15600   176.54503      349.97456     -2339.9262      7.6904196     -2332.2358     -11430.955    
     15650   161.20142      319.5581      -2339.0654      7.0220415     -2332.0433     -14596.962    
     15700   149.21075      295.78838     -2338.538       6.4997203     -2332.0383     -15520.264    
     15750   144.05869      285.57516     -2338.4061      6.2752927     -2332.1308     -12089.019    
     15800   145.52354      288.47901     -2338.5736      6.3391026     -2332.2345     -9928.1581    
     15850   143.84941      285.1603      -2338.4206      6.2661765     -2332.1545     -12468.674    
     15900   149.95525      297.26424     -2338.687       6.5321511     -2332.1549     -10741.462    
     15950   138.5969       274.74798     -2338.2159      6.0373737     -2332.1786     -13317.017    
     16000   142.68867      282.8593      -2338.3493      6.2156137     -2332.1337     -13908.105    
     16050   156.1393       309.5232      -2338.968       6.8015323     -2332.1665     -10947.936    
     16100   154.82169      306.91122     -2339.3106      6.7441362     -2332.5665     -10989.521    
     16150   164.46699      326.03161     -2339.2583      7.1642919     -2332.094      -13233.172    
     16200   147.83758      293.06626     -2338.4999      6.4399038     -2332.06       -9754.1094    
     16250   137.50923      272.59184     -2338.0461      5.9899942     -2332.0561     -9266.9939    
     16300   153.2015       303.69944     -2338.5869      6.6735596     -2331.9134     -13000.435    
     16350   151.79632      300.91388     -2338.5151      6.6123492     -2331.9027     -12919.745    
     16400   150.64353      298.62865     -2338.6488      6.5621331     -2332.0867     -11189.575    
     16450   141.97446      281.4435      -2338.3005      6.1845026     -2332.116      -10849.467    
     16500   154.69398      306.65807     -2338.9455      6.7385733     -2332.207      -10346.432    
     16550   161.7089       320.56411     -2339.2415      7.0441479     -2332.1973     -9927.4569    
     16600   165.98722      329.04525     -2339.3504      7.2305142     -2332.1199     -8500.1918    
     16650   153.19485      303.68627     -2338.702       6.6732703     -2332.0287     -8178.692     
     16700   151.68729      300.69775     -2338.6968      6.6075999     -2332.0892     -10556.57     
     16750   133.34868      264.34414     -2337.8185      5.8087575     -2332.0097     -10163.547    
     16800   151.75585      300.83365     -2338.5549      6.6105862     -2331.9443     -10196.008    
     16850   167.40841      331.86255     -2339.3565      7.2924223     -2332.064      -9494.2984    
     16900   169.41789      335.84606     -2339.5036      7.3799567     -2332.1236     -9365.1221    
     16950   160.3102       317.79139     -2339.0328      6.9832194     -2332.0496     -12469.706    
     17000   142.2196       281.92944     -2338.1686      6.1951808     -2331.9734     -12684.586    
     17050   151.43446      300.19655     -2338.3918      6.5965864     -2331.7952     -12993.692    
     17100   153.2789       303.85288     -2338.475       6.6769315     -2331.7981     -12123.44     
     17150   171.21991      339.41829     -2339.3877      7.4584538     -2331.9293     -11141.36     
     17200   160.41312      317.99542     -2338.7967      6.9877028     -2331.809      -14113.413    
     17250   164.61506      326.32514     -2339.1043      7.1707419     -2331.9336     -12877.72     
     17300   166.90493      330.86449     -2339.2768      7.2704906     -2332.0063     -11533.908    
     17350   146.77772      290.96524     -2338.4129      6.3937356     -2332.0192     -8989.0546    
     17400   160.40027      317.96995     -2339.0252      6.9871431     -2332.0381     -10179.334    
     17450   168.8041       334.6293      -2339.2431      7.3532194     -2331.8898     -10824.752    
     17500   166.83826      330.73231     -2339.2632      7.2675861     -2331.9956     -10681.805    
     17550   154.4001       306.07548     -2338.6263      6.7257714     -2331.9005     -12620.66     
     17600   151.30121      299.93239     -2338.5852      6.5907817     -2331.9944     -12271.777    
     17650   156.61368      310.46358     -2338.6626      6.8221965     -2331.8404     -14589.592    
     17700   160.19056      317.55423     -2338.8795      6.9780081     -2331.9015     -13972.992    
     17750   154.23925      305.75663     -2338.63        6.7187649     -2331.9112     -10915.026    
     17800   145.01721      287.47529     -2338.5005      6.3170466     -2332.1834     -10423.796    
     17850   164.92601      326.94156     -2339.1274      7.1842872     -2331.9431     -10632.999    
     17900   171.14866      339.27705     -2339.339       7.4553501     -2331.8836     -12052.336    
     17950   148.43009      294.24083     -2338.4266      6.4657141     -2331.9609     -11763.122    
     18000   150.38042      298.10707     -2338.6037      6.5506718     -2332.053      -11613.086    
     18050   155.23467      307.7299      -2338.6786      6.7621259     -2331.9165     -10235.623    
     18100   154.58976      306.45146     -2338.6522      6.7340332     -2331.9182     -9256.8725    
     18150   150.37509      298.0965      -2338.492       6.5504394     -2331.9415     -10820.047    
     18200   150.71599      298.77228     -2338.662       6.5652891     -2332.0967     -8916.4398    
     18250   157.85449      312.92331     -2338.85        6.876247      -2331.9737     -12352.972    
     18300   153.65908      304.60654     -2338.6804      6.6934925     -2331.9869     -11219.129    
     18350   158.1881       313.58464     -2338.8251      6.8907794     -2331.9343     -14245.2      
     18400   158.24362      313.69471     -2338.6879      6.8931981     -2331.7947     -10893.083    
     18450   155.35245      307.96339     -2338.5669      6.7672567     -2331.7996     -11627.302    
     18500   147.59934      292.59398     -2338.3743      6.4295259     -2331.9447     -9887.9572    
     18550   147.0836       291.57161     -2338.4081      6.4070601     -2332.001      -11260.9      
     18600   159.56447      316.31309     -2338.7609      6.9507349     -2331.8102     -10975.428    
     18650   158.29957      313.80562     -2338.5572      6.8956353     -2331.6615     -11571.376    
     18700   151.04809      299.43062     -2338.2512      6.5797558     -2331.6715     -12371.14     
     18750   143.88053      285.222       -2338.0887      6.2675323     -2331.8211     -13182.171    
     18800   156.8501       310.93226     -2338.8656      6.8324953     -2332.0331     -12322.747    
     18850   159.43932      316.06501     -2338.8102      6.9452836     -2331.8649     -12128.894    
     18900   141.90942      281.31456     -2338.5003      6.1816694     -2332.3187     -11518.653    
     18950   166.19504      329.45723     -2338.9627      7.2395672     -2331.7231     -12661.806    
     19000   164.2668       325.63478     -2339.1194      7.1555719     -2331.9639     -11782.777    
     19050   147.39992      292.19866     -2338.3934      6.420839      -2331.9725     -10366.249    
     19100   167.35223      331.75118     -2339.0238      7.289975      -2331.7338     -11846.29     
     19150   159.32763      315.84359     -2339.1458      6.940418      -2332.2054     -15221.635    
     19200   158.52092      314.24441     -2338.9445      6.9052774     -2332.0392     -11556.444    
     19250   156.7255       310.68525     -2338.7702      6.8270674     -2331.9431     -12807.631    
     19300   147.87579      293.14201     -2338.4081      6.4415683     -2331.9665     -12473.388    
     19350   151.93868      301.1961      -2338.5476      6.6185507     -2331.929      -10678.562    
     19400   167.29802      331.64371     -2339.14        7.2876135     -2331.8524     -12214.884    
     19450   165.9163       328.90467     -2339.3273      7.227425      -2332.0999     -12050.245    
     19500   148.00687      293.40185     -2338.5076      6.4472781     -2332.0603     -12683.36     
     19550   150.42618      298.19777     -2338.6327      6.5526648     -2332.0801     -10499.211    
     19600   156.31941      309.88025     -2338.9076      6.8093782     -2332.0982     -13097.757    
     19650   155.71773      308.6875      -2338.9158      6.7831684     -2332.1326     -14273.666    
     19700   166.39977      329.86307     -2339.1941      7.2484853     -2331.9456     -13470.133    
     19750   157.72313      312.66291     -2339.014       6.870525      -2332.1435     -12586.522    
     19800   139.22533      275.99375     -2338.2592      6.0647486     -2332.1945     -11994.36     
     19850   152.92256      303.14648     -2338.8703      6.6614089     -2332.2089     -11495.567    
     19900   153.01728      303.33426     -2339.0035      6.6655351     -2332.338      -10003.447    
     19950   156.99663      311.22273     -2338.9706      6.8388781     -2332.1317     -11904.839    
     20000   166.92088      330.89609     -2339.288       7.271185      -2332.0169     -9110.3653    
     20050   164.01268      325.13103     -2339.4266      7.1445022     -2332.2821     -11448.825    
     20100   148.39616      294.17356     -2338.7678      6.4642359     -2332.3036     -7786.038     
     20150   158.66284      314.52574     -2339.176       6.9114593     -2332.2645     -12089.106    
     20200   149.19181      295.75083     -2339.0693      6.4988952     -2332.5704     -11955.854    
     20250   156.72155      310.67743     -2338.9816      6.8268957     -2332.1547     -11456.757    
     20300   154.70512      306.68015     -2339.1255      6.7390586     -2332.3864     -11187.436    
     20350   146.27966      289.97791     -2338.7694      6.3720398     -2332.3974     -10028.323    
     20400   148.13162      293.64916     -2338.5196      6.4527126     -2332.0669     -8644.574     
     20450   144.60935      286.66676     -2339.0074      6.2992799     -2332.7081     -11680.668    
     20500   152.00371      301.325       -2338.8289      6.6213832     -2332.2076     -11721.079    
     20550   142.66073      282.80392     -2338.5782      6.2143968     -2332.3638     -6897.3479    
     20600   145.537        288.5057      -2338.7099      6.3396891     -2332.3702     -9004.7522    
     20650   161.92624      320.99496     -2339.2558      7.0536153     -2332.2022     -12031.627    
     20700   149.10451      295.57777     -2339.1332      6.4950923     -2332.6381     -11166.262    
     20750   156.2415       309.7258      -2338.9466      6.8059843     -2332.1406     -10188.492    
     20800   144.74879      286.94319     -2338.5901      6.3053541     -2332.2848     -8632.162     
     20850   144.03145      285.52117     -2338.6226      6.2741063     -2332.3485     -13380.824    
     20900   150.14269      297.6358      -2338.981       6.5403158     -2332.4407     -13649.657    
     20950   161.13785      319.43208     -2339.0739      7.0192724     -2332.0546     -10630.517    
     21000   149.88218      297.11937     -2338.7626      6.5289678     -2332.2336     -10044.971    
     21050   156.42914      310.09777     -2338.9911      6.8141581     -2332.1769     -11188.043    
     21100   159.72827      316.6378      -2339.2937      6.9578702     -2332.3358     -13933.209    
     21150   158.65009      314.50047     -2339.0513      6.9109039     -2332.1404     -12238.856    
     21200   140.54344      278.6067      -2338.2548      6.1221663     -2332.1326     -11321.751    
     21250   157.92922      313.07146     -2339.0547      6.8795025     -2332.1752     -11299.865    
     21300   153.03431      303.36802     -2338.8278      6.6662771     -2332.1615     -9841.9687    
     21350   145.12572      287.69039     -2338.4969      6.3217734     -2332.1751     -14209.335    
     21400   138.49303      274.54207     -2338.0508      6.0328491     -2332.0179     -12623.84     
     21450   141.33635      280.17853     -2338.0472      6.156706      -2331.8904     -11720.139    
     21500   140.4773       278.47559     -2338.1208      6.1192851     -2332.0015     -13821.844    
     21550   150.56078      298.4646      -2338.6685      6.5585281     -2332.11       -12038.747    
     21600   141.4558       280.41531     -2338.3408      6.1619091     -2332.1789     -11345.756    
     21650   149.51021      296.382       -2338.5879      6.5127646     -2332.0751     -9369.6812    
     21700   148.6472       294.67121     -2338.6308      6.4751714     -2332.1556     -13635.917    
     21750   164.20399      325.51026     -2339.0334      7.1528355     -2331.8805     -12188.17     
     21800   157.41148      312.04511     -2339.001       6.8569493     -2332.144      -11839.634    
     21850   152.44178      302.19341     -2338.3867      6.640466      -2331.7463     -13931.581    
     21900   152.32276      301.95747     -2338.3701      6.6352812     -2331.7348     -8513.706     
     21950   159.3033       315.79536     -2338.5695      6.9393581     -2331.6301     -13823.029    
     22000   141.20563      279.91939     -2337.7854      6.1510115     -2331.6343     -13926.079    
     22050   148.26797      293.91945     -2338.0915      6.4586521     -2331.6328     -9758.4469    
     22100   151.50274      300.33191     -2338.2358      6.5995608     -2331.6362     -12285.869    
     22150   147.52852      292.4536      -2338.3953      6.426441      -2331.9689     -13010.997    
     22200   157.43984      312.10133     -2338.9334      6.8581847     -2332.0752     -12814.592    
     22250   152.3304       301.97262     -2338.9755      6.6356142     -2332.3399     -10712.643    
     22300   155.44397      308.14481     -2338.4943      6.7712433     -2331.723      -13656.453    
     22350   163.84721      324.803       -2338.9176      7.1372941     -2331.7803     -9996.063     
     22400   157.4918       312.20433     -2338.6168      6.860448      -2331.7563     -7169.0557    
     22450   150.02995      297.41231     -2338.274       6.535405      -2331.7386     -13708.137    
     22500   154.04714      305.37581     -2338.4225      6.7103965     -2331.7121     -10412.307    
     22550   150.2097       297.76863     -2338.2268      6.5432349     -2331.6836     -11018.334    
     22600   158.97611      315.14675     -2338.7461      6.9251055     -2331.821      -9570.9526    
     22650   152.41008      302.13058     -2338.3597      6.6390852     -2331.7206     -10758.526    
     22700   155.97637      309.20021     -2338.5491      6.7944349     -2331.7546     -12547.929    
     22750   143.94317      285.34617     -2337.9242      6.2702609     -2331.654      -9839.855     
     22800   144.41354      286.27861     -2337.9728      6.2907505     -2331.682      -11737.429    
     22850   154.47999      306.23386     -2338.5366      6.7292516     -2331.8074     -10631.356    
     22900   158.20891      313.62589     -2338.5865      6.8916858     -2331.6948     -10200.065    
     22950   163.12424      323.36983     -2338.8107      7.1058012     -2331.7049     -9584.0773    
     23000   154.83034      306.92838     -2338.5563      6.7445132     -2331.8118     -10588.987    
     23050   160.61509      318.39579     -2338.709       6.9965007     -2331.7125     -5342.6086    
     23100   154.06371      305.40865     -2338.4501      6.7111182     -2331.739      -9638.1862    
     23150   160.66978      318.50422     -2338.9096      6.9988832     -2331.9108     -8486.1662    
     23200   145.69769      288.82424     -2338.2         6.3466888     -2331.8533     -12992.903    
     23250   150.41874      298.18302     -2338.3313      6.5523408     -2331.7789     -12845.908    
     23300   155.78124      308.8134      -2338.5051      6.7859351     -2331.7192     -8635.9377    
     23350   158.22006      313.648       -2338.6588      6.8921717     -2331.7666     -11197.274    
     23400   155.50643      308.26863     -2338.5874      6.7739642     -2331.8134     -11725.929    
     23450   158.44559      314.09509     -2338.6737      6.901996      -2331.7717     -10881.036    
     23500   150.52282      298.38935     -2338.3548      6.5568746     -2331.7979     -11313.434    
     23550   158.53402      314.27039     -2338.7454      6.9058481     -2331.8396     -11037.561    
     23600   162.38426      321.90292     -2338.8648      7.073567      -2331.7912     -11476.838    
     23650   152.28816      301.88887     -2338.4784      6.633774      -2331.8447     -9954.1781    
     23700   143.71526      284.89436     -2338.0876      6.2603328     -2331.8273     -12685.482    
     23750   154.23416      305.74654     -2338.4904      6.7185432     -2331.7718     -11619.658    
     23800   162.92821      322.98122     -2338.8233      7.0972619     -2331.726      -8725.4124    
     23850   151.17655      299.68528     -2338.2503      6.5853517     -2331.6649     -9832.3345    
     23900   149.00247      295.37548     -2338.1309      6.4906472     -2331.6403     -10281.375    
     23950   178.82354      354.49137     -2339.3667      7.7896731     -2331.577      -12294.83     
     24000   161.53468      320.21876     -2338.732       7.0365589     -2331.6954     -12758.078    
     24050   157.25384      311.73262     -2338.3808      6.8500827     -2331.5307     -9809.7531    
     24100   157.2054       311.63659     -2338.4495      6.8479725     -2331.6015     -11501.593    
     24150   166.23736      329.54112     -2338.8555      7.2414106     -2331.6141     -12297.696    
     24200   158.3416       313.88894     -2338.4713      6.8974661     -2331.5738     -11350.143    
     24250   156.22211      309.68736     -2338.453       6.8051396     -2331.6479     -11028.404    
     24300   158.81366      314.82473     -2338.5513      6.9180292     -2331.6332     -10923.722    
     24350   150.47607      298.29667     -2338.3025      6.5548381     -2331.7476     -9821.4686    
     24400   150.89601      299.12916     -2338.2122      6.5731313     -2331.6391     -10780.406    
     24450   158.88476      314.96566     -2338.635       6.9211262     -2331.7139     -10254.644    
     24500   147.07378      291.55214     -2338.0922      6.4066323     -2331.6856     -11056.801    
     24550   167.31689      331.68113     -2339.0058      7.2884356     -2331.7173     -9358.6999    
     24600   157.57151      312.36236     -2338.5835      6.8639206     -2331.7196     -8851.4202    
     24650   147.54708      292.49039     -2338.1437      6.4272495     -2331.7164     -10514.768    
     24700   162.16695      321.47213     -2338.8715      7.0641009     -2331.8074     -9772.5251    
     24750   150.75688      298.85334     -2338.3812      6.5670704     -2331.8141     -12330.175    
     24800   155.80229      308.85513     -2338.6159      6.7868521     -2331.829      -8317.1226    
     24850   161.45501      320.06082     -2338.8604      7.0330884     -2331.8273     -8042.0153    
     24900   167.22302      331.49505     -2339.129       7.2843466     -2331.8447     -12636.833    
     24950   152.71825      302.74147     -2338.5038      6.652509      -2331.8512     -10434.311    
     25000   166.41979      329.90277     -2339.064       7.2493575     -2331.8146     -10906.296    
     25050   169.51551      336.03957     -2339.2548      7.384209      -2331.8706     -11623.456    
     25100   158.56602      314.33381     -2338.9318      6.9072417     -2332.0246     -9597.5265    
     25150   155.74013      308.73191     -2338.6323      6.7841443     -2331.8482     -8076.5078    
     25200   171.24444      339.46693     -2339.0356      7.4595225     -2331.5761     -12786.445    
     25250   165.62298      328.3232      -2338.7177      7.2146478     -2331.503      -12035.731    
     25300   159.51814      316.22126     -2338.1501      6.948717      -2331.2014     -10164.278    
     25350   160.93287      319.02574     -2338.3138      7.0103434     -2331.3035     -10208.532    
     25400   162.05201      321.24427     -2338.4178      7.0590938     -2331.3587     -9967.6306    
     25450   171.138        339.25592     -2338.9408      7.4548858     -2331.4859     -10390.734    
     25500   176.01589      348.92562     -2339.1918      7.6673699     -2331.5245     -12548.711    
     25550   163.68768      324.48675     -2338.3528      7.1303447     -2331.2224     -8943.5431    
     25600   152.65813      302.62229     -2337.939       6.6498902     -2331.2891     -12941.802    
     25650   161.28828      319.73029     -2338.2909      7.0258252     -2331.2651     -14558.113    
     25700   148.70827      294.79228     -2338.05        6.4778317     -2331.5722     -11175.58     
     25750   159.0637       315.3204      -2338.3177      6.9289212     -2331.3888     -8305.7431    
     25800   138.07948      273.72225     -2337.2757      6.0148343     -2331.2609     -9163.0315    
     25850   156.08933      309.42414     -2338.0023      6.7993555     -2331.2029     -12137.133    
     25900   172.83451      342.61901     -2338.9856      7.528787      -2331.4568     -11089.24     
     25950   155.98495      309.21722     -2338.1476      6.7948087     -2331.3527     -9504.688     
     26000   160.94782      319.05539     -2338.2619      7.0109947     -2331.2509     -10294.336    
     26050   161.18491      319.52537     -2338.3055      7.0213224     -2331.2842     -14328.612    
     26100   158.01721      313.24589     -2338.1634      6.8833355     -2331.28       -10714.178    
     26150   163.12976      323.38076     -2338.5503      7.1060415     -2331.4443     -10311.507    
     26200   155.30086      307.86112     -2338.0946      6.7650094     -2331.3296     -7965.7408    
     26250   165.71326      328.50216     -2338.579       7.2185803     -2331.3605     -11001.544    
     26300   156.59348      310.42355     -2338.2265      6.8213168     -2331.4052     -12216.704    
     26350   152.78829      302.88032     -2338.0468      6.6555603     -2331.3913     -10188.458    
     26400   168.55298      334.13149     -2338.8317      7.3422804     -2331.4894     -10257.276    
     26450   163.33458      323.78678     -2338.4484      7.1149634     -2331.3334     -12854.982    
     26500   161.63817      320.42391     -2338.2945      7.041067      -2331.2535     -9389.1944    
     26550   154.02103      305.32403     -2338.0015      6.7092589     -2331.2922     -12272.808    
     26600   162.17175      321.48165     -2338.3754      7.06431       -2331.3111     -12019.188    
     26650   160.33449      317.83954     -2338.3636      6.9842775     -2331.3793     -13065.3      
     26700   149.89717      297.1491      -2338.0164      6.5296212     -2331.4868     -12716.84     
     26750   154.87438      307.01568     -2338.1377      6.7464315     -2331.3913     -11242.007    
     26800   148.21628      293.81698     -2337.7712      6.4564003     -2331.3148     -9781.1496    
     26850   158.87894      314.95413     -2338.4128      6.9208727     -2331.492      -12564.299    
     26900   160.96203      319.08355     -2338.511       7.0116135     -2331.4993     -12305.029    
     26950   149.50399      296.36968     -2337.8904      6.5124939     -2331.3779     -9309.1389    
     27000   149.92284      297.19998     -2337.8964      6.5307392     -2331.3656     -13961.421    
     27050   162.36384      321.86244     -2338.4827      7.0726775     -2331.41       -11433.852    
     27100   152.44605      302.20188     -2338.244       6.6406519     -2331.6034     -11298.59     
     27150   169.84758      336.69786     -2338.996       7.3986743     -2331.5973     -11952.236    
     27200   154.86327      306.99366     -2338.5362      6.7459477     -2331.7902     -10139.362    
     27250   147.22887      291.85959     -2337.9841      6.4133882     -2331.5707     -10892.824    
     27300   150.89538      299.1279      -2338.2347      6.5731037     -2331.6616     -11701.365    
     27350   152.1687       301.65207     -2338.1832      6.6285703     -2331.5546     -11344.613    
     27400   155.05269      307.36916     -2338.3192      6.7541989     -2331.565      -11231.431    
     27450   153.22278      303.74163     -2338.2682      6.6744868     -2331.5937     -12373.49     
     27500   157.47665      312.1743      -2338.6173      6.8597881     -2331.7576     -11402.1      
     27550   151.63648      300.59703     -2338.3531      6.6053867     -2331.7477     -11212.072    
     27600   162.89455      322.91449     -2338.6064      7.0957956     -2331.5106     -12707.757    
     27650   154.95825      307.18195     -2338.2773      6.7500852     -2331.5272     -11326.607    
     27700   155.15378      307.56955     -2338.3477      6.7586023     -2331.5891     -11893.651    
     27750   149.55433      296.46947     -2338.2437      6.5146868     -2331.729      -12086.378    
     27800   145.09691      287.63328     -2337.9995      6.3205183     -2331.679      -8975.9672    
     27850   161.24365      319.64181     -2338.7759      7.023881      -2331.752      -10010.112    
     27900   161.8435       320.83093     -2338.6555      7.0500109     -2331.6054     -9783.651     
     27950   172.39367      341.74511     -2339.1607      7.5095837     -2331.6511     -12565.765    
     28000   149.21158      295.79001     -2337.9983      6.4997562     -2331.4986     -9928.7887    
     28050   157.72838      312.67333     -2338.3466      6.8707539     -2331.4758     -12920.164    
     28100   153.41396      304.12061     -2338.1629      6.6828145     -2331.4801     -11634.42     
     28150   166.32506      329.71498     -2338.7459      7.2452309     -2331.5007     -12886.847    
     28200   161.69978      320.54603     -2338.735       7.0437505     -2331.6912     -11133.539    
     28250   174.5647       346.04884     -2339.1305      7.6041549     -2331.5263     -10983.076    
     28300   162.57868      322.28833     -2338.7038      7.0820362     -2331.6218     -9703.2915    
     28350   159.97078      317.11854     -2338.4479      6.9684341     -2331.4794     -8133.7544    
     28400   154.5463       306.3653      -2338.3272      6.73214       -2331.5951     -9299.4599    
     28450   145.78348      288.9943      -2338.0026      6.3504258     -2331.6521     -9993.9731    
     28500   168.37695      333.78254     -2338.8929      7.3346125     -2331.5583     -9325.3993    
     28550   158.1049       313.41971     -2338.5151      6.8871552     -2331.628      -10007.13     
     28600   165.48885      328.05731     -2338.9309      7.208805      -2331.7221     -8985.116     
     28650   146.30584      290.02982     -2337.9885      6.3731804     -2331.6153     -6984.6548    
     28700   177.49426      351.85626     -2339.2515      7.7317685     -2331.5197     -10928.372    
     28750   159.47301      316.13179     -2338.6079      6.9467509     -2331.6612     -8877.1761    
     28800   175.74941      348.39737     -2339.2574      7.655762      -2331.6016     -11696.382    
     28850   161.45426      320.05933     -2338.6406      7.0330557     -2331.6075     -10406.6      
     28900   173.79198      344.51704     -2339.1985      7.5704949     -2331.628      -10450.917    
     28950   168.78309      334.58765     -2338.9795      7.3523043     -2331.6272     -11630.565    
     29000   161.10815      319.37322     -2338.6853      7.0179788     -2331.6673     -10717.938    
     29050   163.15044      323.42175     -2338.812       7.1069422     -2331.7051     -11416.162    
     29100   149.23511      295.83665     -2338.2049      6.5007811     -2331.7042     -12920.243    
     29150   160.45989      318.08813     -2338.7152      6.9897399     -2331.7255     -8587.3917    
     29200   160.51453      318.19646     -2338.6013      6.9921204     -2331.6092     -11613.638    
     29250   166.2488       329.56379     -2339.0098      7.2419087     -2331.7679     -7385.6999    
     29300   158.16996      313.54868     -2338.7223      6.8899892     -2331.8323     -11634.827    
     29350   150.07695      297.50549     -2338.3443      6.5374524     -2331.8068     -13622.076    
     29400   148.54035      294.4594      -2338.1767      6.4705169     -2331.7062     -14128.887    
     29450   153.33783      303.9697      -2338.4489      6.6794986     -2331.7694     -10428.112    
     29500   164.04196      325.18907     -2339.0053      7.1457777     -2331.8595     -10946.35     
     29550   159.35549      315.89883     -2338.6972      6.9416318     -2331.7555     -10137.293    
     29600   162.3303       321.79596     -2338.7303      7.0712166     -2331.6591     -12181.254    
     29650   153.28211      303.85925     -2338.3481      6.6770714     -2331.6711     -10864.539    
     29700   140.17898      277.88421     -2337.8443      6.1062901     -2331.738      -12218.927    
     29750   145.21895      287.87521     -2338.0763      6.3258345     -2331.7505     -11988.849    
     29800   146.10923      289.64007     -2338.1965      6.3646159     -2331.8319     -12394.064    
     29850   148.53004      294.43897     -2338.3666      6.4700681     -2331.8965     -12759.7      
     29900   152.44454      302.19888     -2338.5146      6.640586      -2331.874      -12107.803    
     29950   151.46775      300.26253     -2338.3312      6.5980363     -2331.7332     -9189.2368    
     30000   157.49356      312.20783     -2338.7187      6.860525      -2331.8582     -12789.093    
     30050   145.19885      287.83538     -2338.1543      6.3249592     -2331.8293     -11277.648    
     30100   149.62512      296.60981     -2338.3949      6.5177705     -2331.8771     -13672.062    
     30150   160.53099      318.22907     -2339.0167      6.9928371     -2332.0239     -10635.222    
     30200   137.12467      271.82949     -2337.8617      5.9732422     -2331.8885     -8978.1229    
     30250   140.53719      278.59432     -2337.9531      6.1218942     -2331.8312     -9851.019     
     30300   152.84024      302.98329     -2338.6143      6.6578229     -2331.9565     -9346.4601    
     30350   152.32582      301.96353     -2338.3536      6.6354145     -2331.7182     -11318.927    
     30400   169.02424      335.0657      -2339.1149      7.362809      -2331.7521     -7960.5356    
     30450   163.054        323.23058     -2338.9316      7.1027414     -2331.8288     -9517.7449    
     30500   152.60825      302.52341     -2338.5195      6.6477174     -2331.8718     -9922.6779    
     30550   143.65072      284.76643     -2338.253       6.2575216     -2331.9955     -12438.092    
     30600   159.31118      315.81099     -2338.9368      6.9397015     -2331.9971     -10798.386    
     30650   149.61917      296.59801     -2338.4258      6.5175113     -2331.9083     -10798.86     
     30700   148.30954      294.00186     -2338.2717      6.460463      -2331.8113     -11295.711    
     30750   148.43424      294.24905     -2338.3215      6.4658947     -2331.8556     -12060.458    
     30800   155.90992      309.0685      -2338.6071      6.7915406     -2331.8155     -12219.734    
     30850   155.81308      308.87651     -2338.6894      6.7873218     -2331.9021     -11808.6      
     30900   166.67004      330.39884     -2339.0054      7.2602583     -2331.7451     -8906.862     
     30950   153.46848      304.22869     -2338.5661      6.6851896     -2331.8809     -12265.471    
     31000   154.48224      306.23832     -2338.5648      6.7293497     -2331.8355     -13494.415    
     31050   163.91498      324.93735     -2338.5926      7.1402463     -2331.4523     -11110.902    
     31100   161.88748      320.91813     -2338.2852      7.051927      -2331.2333     -11394.737    
     31150   170.59423      338.17797     -2338.664       7.4311987     -2331.2328     -9965.9403    
     31200   147.56084      292.51767     -2337.5345      6.4278489     -2331.1067     -12546.85     
     31250   166.23417      329.53479     -2338.2705      7.2412714     -2331.0292     -11942.038    
     31300   150.64905      298.63959     -2337.5973      6.5623734     -2331.035      -13137.531    
     31350   161.53975      320.22879     -2338.1031      7.0367794     -2331.0663     -9720.4875    
     31400   156.4679       310.1746      -2337.9833      6.8158463     -2331.1675     -11145.205    
     31450   152.89261      303.08712     -2337.8428      6.6601044     -2331.1827     -12840.008    
     31500   157.75641      312.72888     -2338.2477      6.8719746     -2331.3757     -11653.225    
     31550   155.27774      307.81528     -2338.2587      6.764002      -2331.4947     -8116.4405    
     31600   153.27884      303.85276     -2338.4409      6.6769289     -2331.764      -11440.524    
     31650   145.83707      289.10054     -2338.16        6.3527602     -2331.8072     -12447.578    
     31700   163.08385      323.28976     -2338.9069      7.1040418     -2331.8028     -9453.8983    
     31750   154.71206      306.69391     -2338.5386      6.7393609     -2331.7993     -14745.4      
     31800   166.39702      329.85762     -2339.1322      7.2483655     -2331.8838     -11821.836    
     31850   145.17592      287.78992     -2338.2921      6.3239604     -2331.9681     -8278.0627    
     31900   161.43516      320.02146     -2338.7686      7.0322235     -2331.7364     -11117.298    
     31950   169.1701       335.35485     -2339.0583      7.3691627     -2331.6892     -10228.827    
     32000   160.9919       319.14277     -2338.9247      7.0129149     -2331.9118     -12564.419    
     32050   156.45531      310.14964     -2338.744       6.815298      -2331.9287     -9685.1092    
     32100   164.28959      325.67994     -2339.1045      7.1565642     -2331.948      -11845.365    
     32150   175.89348      348.68296     -2339.021       7.6620378     -2331.3589     -11325.489    
     32200   151.0488       299.43203     -2337.9403      6.5797867     -2331.3605     -9018.4406    
     32250   159.06702      315.32698     -2338.3204      6.929066      -2331.3914     -8635.7163    
     32300   153.33012      303.95442     -2338.0817      6.6791627     -2331.4025     -11518.478    
     32350   149.54584      296.45264     -2338.0145      6.5143168     -2331.5002     -8985.7201    
     32400   180.3429       357.50327     -2339.1428      7.8558572     -2331.287      -9526.8686    
     32450   167.15087      331.35203     -2338.691       7.2812038     -2331.4098     -9776.9501    
     32500   151.08135      299.49656     -2338.0495      6.5812046     -2331.4682     -6389.0123    
     32550   154.12765      305.53539     -2338.2012      6.7139034     -2331.4873     -10456.51     
     32600   151.73711      300.7965      -2338.2172      6.6097699     -2331.6074     -8576.054     
     32650   168.60973      334.244       -2338.769       7.3447528     -2331.4243     -10476.268    
     32700   184.7947       366.32831     -2339.2912      8.0497805     -2331.2414     -8690.6693    
     32750   154.18338      305.64588     -2338.1703      6.7163313     -2331.454      -11065.137    
     32800   160.56408      318.29467     -2338.4694      6.9942787     -2331.4751     -8041.7227    
     32850   166.41672      329.89668     -2338.6132      7.2492238     -2331.3639     -10551.554    
[...]
    192000   156.67283      310.58084     -2343.185       6.8247732     -2336.3603     -10995.468    
    192050   160.14367      317.46127     -2343.1919      6.9759652     -2336.216      -11558.198    
    192100   163.11591      323.3533      -2343.3486      7.105438      -2336.2431     -13773.177    
    192150   158.23655      313.68068     -2343.2119      6.8928898     -2336.319      -11368.976    
    192200   156.98705      311.20374     -2343.1527      6.8384608     -2336.3143     -12221.982    
    192250   169.57935      336.16613     -2343.6339      7.3869901     -2336.2469     -10893.92     
    192300   161.7793       320.70367     -2343.3356      7.0472145     -2336.2884     -11797.898    
    192350   146.79417      290.99785     -2342.6595      6.394452      -2336.265      -12864.807    
    192400   165.25859      327.60086     -2343.3434      7.1987749     -2336.1446     -9262.4759    
    192450   150.91995      299.1766      -2342.6363      6.5741738     -2336.0621     -15659.625    
    192500   151.79647      300.91417     -2342.7139      6.6123557     -2336.1015     -13776.927    
    192550   164.22391      325.54975     -2343.1519      7.1537033     -2335.9982     -11523.937    
    192600   149.70266      296.76352     -2342.7206      6.5211482     -2336.1995     -11943.639    
    192650   177.07484      351.02484     -2343.903       7.7134987     -2336.1895     -13230.291    
    192700   158.81428      314.82596     -2343.2036      6.9180563     -2336.2856     -9456.5889    
    192750   155.66301      308.57903     -2342.9808      6.7807849     -2336.2        -9316.8087    
    192800   162.16427      321.46683     -2343.156       7.0639843     -2336.0921     -11498.104    
    192850   153.26964      303.83452     -2342.8416      6.6765279     -2336.165      -11090.307    
    192900   146.68895      290.78927     -2342.6228      6.3898688     -2336.2329     -10133.801    
    192950   167.5827       332.20806     -2343.3008      7.3000146     -2336.0008     -11286.904    
    193000   167.68854      332.41788     -2343.4463      7.3046251     -2336.1417     -10396.678    
    193050   167.98302      333.00164     -2343.3999      7.3174528     -2336.0824     -10849.261    
    193100   168.41286      333.85372     -2343.6085      7.3361766     -2336.2723     -11872.514    
    193150   170.55346      338.09716     -2343.6586      7.4294229     -2336.2291     -9977.8466    
    193200   164.54283      326.18196     -2343.3914      7.1675956     -2336.2238     -11978.7      
    193250   161.56771      320.28422     -2343.1729      7.0379974     -2336.1349     -10677.059    
    193300   159.28833      315.76569     -2343.2789      6.9387062     -2336.3402     -7741.633     
    193350   160.36711      317.90421     -2343.248       6.9856986     -2336.2623     -11827.156    
    193400   154.57529      306.42279     -2342.9431      6.7334032     -2336.2097     -12841.302    
    193450   157.75717      312.73039     -2343.2843      6.8720078     -2336.4123     -10561.477    
    193500   166.53077      330.12276     -2343.7757      7.2541917     -2336.5216     -13930.616    
    193550   159.37444      315.9364      -2343.2933      6.9424573     -2336.3508     -11648.233    
    193600   164.52068      326.13805     -2343.5628      7.1666307     -2336.3961     -11854.168    
    193650   146.21914      289.85795     -2342.7571      6.3694036     -2336.3877     -9925.4001    
    193700   148.67143      294.71925     -2342.9026      6.4762271     -2336.4264     -10172.614    
    193750   154.45442      306.18317     -2343.1656      6.7281377     -2336.4374     -12331.458    
    193800   151.05906      299.45238     -2343.0352      6.5802338     -2336.455      -8926.3587    
    193850   159.98859      317.15386     -2343.4456      6.9692102     -2336.4764     -11272.004    
    193900   161.86903      320.88155     -2343.4693      7.0511233     -2336.4182     -10116.144    
    193950   158.69342      314.58637     -2343.339       6.9127915     -2336.4262     -8986.6448    
    194000   167.79342      332.62577     -2343.7773      7.3091934     -2336.4681     -11900.875    
    194050   144.93355      287.30944     -2342.7773      6.3134023     -2336.4639     -10175.949    
    194100   153.54225      304.37493     -2343.1357      6.6884031     -2336.4473     -12107.018    
    194150   154.6196       306.51061     -2343.2156      6.735333      -2336.4802     -12434.326    
    194200   142.00723      281.50844     -2342.6548      6.1859298     -2336.4688     -11072.299    
    194250   146.90179      291.21119     -2342.9045      6.39914       -2336.5054     -12622.355    
    194300   167.66388      332.36899     -2343.8363      7.3035508     -2336.5328     -10715.249    
    194350   166.8943       330.8434      -2343.8153      7.2700271     -2336.5453     -10883.523    
    194400   164.27587      325.65275     -2343.7152      7.1559666     -2336.5592     -9214.8725    
    194450   156.77994      310.79317     -2343.2396      6.8294389     -2336.4102     -10765.849    
    194500   165.98246      329.03583     -2343.6501      7.2303072     -2336.4198     -8541.778     
    194550   152.0837       301.48357     -2343.1572      6.6248678     -2336.5323     -10059.294    
    194600   164.39146      325.88189     -2343.6165      7.1610019     -2336.4555     -12065.479    
    194650   151.85887      301.03787     -2343.068       6.6150738     -2336.4529     -7818.3913    
    194700   158.207        313.62211     -2343.278       6.8916027     -2336.3864     -15921.249    
    194750   158.23243      313.67253     -2343.2803      6.8927105     -2336.3876     -11083.16     
    194800   162.20401      321.5456      -2343.5544      7.0657152     -2336.4887     -9077.1697    
    194850   160.84019      318.84202     -2343.4705      7.0063062     -2336.4642     -10790.697    
    194900   158.85089      314.89852     -2343.4271      6.9196509     -2336.5074     -12079.502    
    194950   166.47847      330.01909     -2343.7326      7.2519136     -2336.4807     -12097.39     
    195000   147.9692       293.32718     -2343.0133      6.4456373     -2336.5677     -8433.3091    
    195050   154.02625      305.33439     -2343.2117      6.7094865     -2336.5022     -7213.9983    
    195100   155.30412      307.86757     -2343.272       6.7651512     -2336.5068     -11355.351    
    195150   159.51508      316.21518     -2343.4547      6.9485835     -2336.5061     -12308.769    
    195200   169.79034      336.58437     -2343.9525      7.3961806     -2336.5563     -10138.895    
    195250   166.98803      331.0292      -2343.8458      7.2741101     -2336.5716     -9955.3825    
    195300   146.1303       289.68183     -2342.9019      6.3655337     -2336.5364     -8733.6562    
    195350   160.51536      318.1981      -2343.589       6.9921565     -2336.5968     -10875.184    
    195400   157.07819      311.3844      -2343.467       6.8424309     -2336.6246     -12783.865    
    195450   151.8372       300.99493     -2343.2212      6.6141301     -2336.6071     -10660.661    
    195500   151.30957      299.94898     -2343.2292      6.5911462     -2336.638      -12405.427    
    195550   143.57902      284.62429     -2342.9341      6.254398      -2336.6797     -11852.089    
    195600   155.61585      308.48554     -2343.4391      6.7787305     -2336.6604     -11619.767    
    195650   161.38375      319.91954     -2343.6912      7.029984      -2336.6612     -12179.36     
    195700   163.28723      323.69292     -2343.7949      7.112901      -2336.682      -11159.079    
    195750   173.98395      344.89759     -2344.2705      7.5788571     -2336.6917     -12195.361    
    195800   162.8821       322.88981     -2343.7987      7.0952533     -2336.7035     -10278.637    
    195850   156.57134      310.37966     -2343.538       6.8203525     -2336.7177     -12981.982    
    195900   152.31195      301.93604     -2343.3598      6.6348103     -2336.725      -13249.387    
    195950   163.62681      324.36609     -2343.6588      7.1276933     -2336.5311     -9078.6439    
    196000   158.73091      314.66069     -2343.4521      6.9144247     -2336.5377     -6916.792     
    196050   163.9112       324.92985     -2343.6587      7.1400815     -2336.5186     -9808.0613    
    196100   156.96581      311.16163     -2343.3937      6.8375355     -2336.5562     -8130.084     
    196150   161.43891      320.0289      -2343.5784      7.0323869     -2336.5461     -11272.974    
    196200   162.63675      322.40345     -2343.6782      7.0845658     -2336.5936     -12192.261    
    196250   166.14433      329.3567      -2343.8091      7.2373581     -2336.5718     -8668.8548    
    196300   158.72808      314.65508     -2343.5056      6.9143014     -2336.5913     -11803.759    
    196350   150.32568      297.99856     -2343.1711      6.5482874     -2336.6228     -11579.125    
    196400   165.41314      327.90723     -2343.8628      7.2055072     -2336.6573     -10552.874    
    196450   154.92421      307.11446     -2343.3869      6.748602      -2336.6383     -10942.293    
    196500   148.07356      293.53405     -2343.1198      6.4501833     -2336.6696     -13345.526    
    196550   143.73939      284.94221     -2342.9214      6.2613841     -2336.66       -11663.795    
    196600   166.0627       329.19487     -2343.8724      7.2338021     -2336.6386     -9373.8255    
    196650   160.85818      318.87768     -2343.6512      7.0070897     -2336.6441     -14445.842    
    196700   165.18697      327.45887     -2343.8411      7.1956548     -2336.6454     -11042.262    
    196750   152.91276      303.12705     -2343.3736      6.6609819     -2336.7126     -9884.4515    
    196800   157.97184      313.15594     -2343.6325      6.8813589     -2336.7511     -12414.208    
    196850   144.39547      286.24278     -2342.9311      6.2899632     -2336.6412     -10682.363    
    196900   140.90662      279.32664     -2342.8269      6.1379864     -2336.6889     -12560.224    
    196950   153.24823      303.79208     -2343.3162      6.6755954     -2336.6406     -13912.536    
    197000   156.0119       309.27065     -2343.4858      6.7959827     -2336.6898     -10889.035    
    197050   148.02513      293.43805     -2343.1703      6.4480735     -2336.7222     -10631.015    
    197100   155.20725      307.67555     -2343.4986      6.7609316     -2336.7377     -12409.388    
    197150   153.13038      303.55847     -2343.3935      6.670462      -2336.723      -13238.606    
    197200   153.51535      304.3216      -2343.4224      6.6872313     -2336.7351     -13889.954    
    197250   150.62635      298.59459     -2343.3012      6.5613846     -2336.7399     -10928.9      
    197300   152.05925      301.4351      -2343.3845      6.6238025     -2336.7607     -9301.0962    
    197350   145.71695      288.86242     -2343.1349      6.3475276     -2336.7873     -9290.6261    
    197400   153.15907      303.61533     -2343.4595      6.6717115     -2336.7878     -9134.7752    
    197450   155.07024      307.40394     -2343.5867      6.7549633     -2336.8318     -8311.1953    
    197500   154.18881      305.65665     -2343.5457      6.7165678     -2336.8291     -12570.67     
    197550   153.89014      305.06458     -2343.5267      6.7035576     -2336.8231     -10343.675    
    197600   154.45121      306.17682     -2343.3246      6.7279982     -2336.5966     -10640.511    
    197650   161.55324      320.25553     -2343.4835      7.037367      -2336.4461     -11498.659    
    197700   141.11045      279.73072     -2342.5469      6.1468658     -2336.4        -11205.603    
    197750   166.05506      329.17973     -2343.7596      7.2334694     -2336.5261     -10002.8      
    197800   153.07028      303.43932     -2343.2519      6.6678438     -2336.5841     -9832.6743    
    197850   151.49146      300.30954     -2343.2502      6.5990692     -2336.6511     -12299.695    
    197900   157.69846      312.61401     -2343.5241      6.8694505     -2336.6547     -13828.092    
    197950   146.46043      290.33627     -2343.0141      6.3799144     -2336.6342     -11372.351    
    198000   151.5915       300.50786     -2343.24        6.6034273     -2336.6366     -12372.212    
    198050   161.21357      319.5822      -2343.6066      7.022571      -2336.584      -13038.982    
    198100   154.70424      306.6784      -2343.264       6.73902       -2336.525      -13008.168    
    198150   163.94632      324.99946     -2343.6897      7.1416112     -2336.5481     -14766.378    
    198200   155.67098      308.59482     -2343.2245      6.7811319     -2336.4434     -11077.091    
    198250   151.05212      299.43861     -2343.0571      6.5799314     -2336.4772     -12178.451    
    198300   150.06854      297.48881     -2343.0907      6.5370859     -2336.5536     -12139.003    
    198350   144.13027      285.71706     -2342.7655      6.2784109     -2336.487      -10258.271    
    198400   132.54812      262.75716     -2342.2797      5.7738849     -2336.5058     -13667.548    
    198450   144.69381      286.83421     -2342.8136      6.3029593     -2336.5106     -13381.136    
    198500   147.39042      292.17983     -2342.9428      6.4204253     -2336.5224     -13149.729    
    198550   143.06578      283.60687     -2342.7895      6.232041      -2336.5574     -12051.185    
    198600   145.68536      288.79981     -2342.9025      6.3461518     -2336.5564     -14396.646    
    198650   155.06379      307.39116     -2343.3377      6.7546825     -2336.583      -13414.342    
    198700   152.15609      301.62707     -2343.2425      6.6280209     -2336.6145     -9332.2671    
    198750   146.10539      289.63244     -2342.9715      6.3644483     -2336.6071     -12360.723    
    198800   160.31241      317.79578     -2343.595       6.9833158     -2336.6117     -11344.989    
    198850   149.44342      296.2496      -2343.1481      6.5098553     -2336.6382     -12265.393    
    198900   159.62964      316.44229     -2343.5782      6.9535739     -2336.6247     -13318.05     
    198950   152.45054      302.21077     -2343.2028      6.6408473     -2336.5619     -11377.617    
    199000   154.97064      307.20651     -2342.9688      6.7506248     -2336.2181     -11308.871    
    199050   149.52195      296.40528     -2342.6725      6.5132762     -2336.1592     -7432.8066    
    199100   147.18997      291.78247     -2342.6451      6.4116935     -2336.2334     -10871.277    
    199150   164.40478      325.90831     -2343.3357      7.1615824     -2336.1741     -13056.945    
    199200   159.10659      315.40542     -2343.1424      6.9307896     -2336.2116     -13413.428    
    199250   142.64885      282.78037     -2342.3808      6.2138793     -2336.1669     -9095.0704    
    199300   138.85942      275.26837     -2342.2205      6.048809      -2336.1716     -9793.2412    
    199350   157.42996      312.08175     -2343.0576      6.8577544     -2336.1998     -8915.6582    
    199400   152.48891      302.28684     -2342.862       6.6425189     -2336.2195     -12966.549    
    199450   161.00558      319.16989     -2343.2785      7.0135108     -2336.265      -9188.8826    
    199500   162.03986      321.22019     -2343.2562      7.0585645     -2336.1976     -9708.1677    
    199550   140.38504      278.29269     -2342.1957      6.1152661     -2336.0805     -9187.2681    
    199600   132.43198      262.52693     -2341.8456      5.7688258     -2336.0768     -14062.124    
    199650   144.32052      286.09421     -2342.3671      6.2866984     -2336.0804     -14264.737    
    199700   164.57449      326.24473     -2342.986       7.1689749     -2335.817      -12329.809    
    199750   145.05979      287.5597      -2342.3188      6.3189015     -2335.9999     -12669.977    
    199800   152.78552      302.87483     -2342.4275      6.6554396     -2335.7721     -11612.348    
    199850   148.68282      294.74183     -2342.3137      6.4767231     -2335.837      -12032.798    
    199900   134.03403      265.70275     -2341.7601      5.838612      -2335.9215     -13314.691    
    199950   162.22878      321.59469     -2342.873       7.066794      -2335.8062     -13660.653    
    200000   144.71817      286.88249     -2342.1346      6.3040203     -2335.8306     -13718.544    
colvars: Saving collective variables state to "out.colvars.state".
colvars:   Writing TI PMF to file "out.metadynamics1.ti.pmf".
Loop time of 999.777 on 4 procs for 200000 steps with 338 atoms

Performance: 8.642 ns/day, 2.777 hours/ns, 200.045 timesteps/s, 67.615 katom-step/s
139.6% CPU use with 4 MPI tasks x 1 OpenMP threads

MPI task timing breakdown:
Section |  min time  |  avg time  |  max time  |%varavg| %total
---------------------------------------------------------------
Pair    | 745.91     | 839.12     | 919.27     | 232.3 | 83.93
Neigh   | 0.11881    | 1.369      | 2.2988     |  71.0 |  0.14
Comm    | 11.12      | 81.942     | 183.03     | 708.8 |  8.20
Output  | 39.835     | 45.313     | 51.912     |  80.3 |  4.53
Modify  | 12.688     | 23.49      | 51.879     | 339.6 |  2.35
Other   |            | 8.546      |            |       |  0.85

Nlocal:           84.5 ave         119 max           6 min
Histogram: 1 0 0 0 0 0 0 1 0 2
Nghost:        1148.75 ave        1668 max         684 min
Histogram: 1 0 0 1 0 1 0 0 0 1
Neighs:              0 ave           0 max           0 min
Histogram: 4 0 0 0 0 0 0 0 0 0
FullNghs:      15194.5 ave       23644 max         606 min
Histogram: 1 0 0 0 0 1 0 0 0 2

Total # of neighbors = 60778
Ave neighs/atom = 179.81657
Neighbor list builds = 2398
Dangerous builds = 0
write_data final.data
System init for write_data ...
Generated 0 of 6 mixed pair_coeff terms from geometric mixing rule

CITE-CITE-CITE-CITE-CITE-CITE-CITE-CITE-CITE-CITE-CITE-CITE-CITE

Your simulation uses code contributions which should be cited:

- Colvars module (Fiorin2013, plus other works listed for specific features)


% Colvars module:
% Colvars-LAMMPS interface:
% Metadynamics colvar bias implementation:
% Optimal rotation via flexible fitting:
% distanceZ colvar component:

@article{Fiorin2013,
  author = {Fiorin, Giacomo and Klein, Michael L.{} and H\'enin, J\'er\^ome},
  title = {Using collective variables to drive molecular dynamics simulations},
  journal = {Mol. Phys.},
  year = {2013},
  volume = {111},
  number = {22-23},
  pages = {3345--3362},
  publisher = {Taylor & Francis},
  doi = {10.1080/00268976.2013.813594},
  url = {https://doi.org/10.1080/00268976.2013.813594}
}


% Internal-forces free energy estimator:

@article{Henin2010,
  author = {H\'enin, J\'er\^ome and Fiorin, Giacomo and Chipot, Christophe and Klein, Michael L.},
  title = {Exploring multidimensional free energy landscapes using time-dependent biases on collective variables},
  journal = {J. Chem. Theory Comput.},
  year = {2010},
  volume = {6},
  pages = {35-47},
  number = {1},
  doi = {10.1021/ct9004432},
  pmid = {26614317},
  url = {https://doi.org/10.1021/ct9004432}
}


% LAMMPS engine:

@article{Thompson2022,
  title = {{LAMMPS} - a flexible simulation tool for particle-based materials modeling at the atomic, meso, and continuum scales},
  author = {Thompson, Aidan P. and Aktulga, H. Metin and Berger, Richard and Bolintineanu, Dan S. and Brown, W. Michael and Crozier, Paul S. and {in't Veld}, Pieter J. and Kohlmeyer, Axel and Moore, Stan G. and Nguyen, Trung Dac and Shan, Ray and Stevens, Mark J. and Tranchida, Julien and Trott, Christian and Plimpton, Steven J.},
  journal = {Comp. Phys. Comm.},
  volume = {271},
  pages = {108171},
  year = {2022},
  doi = {10.1016/j.cpc.2021.108171},
  url = {https://doi.org/10.1016/j.cpc.2021.108171}
}

CITE-CITE-CITE-CITE-CITE-CITE-CITE-CITE-CITE-CITE-CITE-CITE-CITE

Total wall time: 0:17:02
