LAMMPS (2 Aug 2023)
OMP_NUM_THREADS environment is not set. Defaulting to 1 thread. (src/comm.cpp:98)
  using 1 OpenMP thread(s) per MPI task
Loaded 1 plugins from /work/home/baoergen22b/apprepo/deepmd/v2.2.9-dtk23.10/app/lib/deepmd_lmp
package gpu 4
# system
units        metal
dimension    3
atom_style   atomic
boundary     p p f

# 设置原子映射
atom_modify map array

# initial stucture
read_data POSCAR.lmp
Reading data file ...
  orthogonal box = (0 0 0) to (11.328 12.015 32)
  1 by 1 by 4 MPI processor grid
  reading atoms ...
  339 atoms
  read_data CPU = 0.034 seconds
mass      1 55.845
mass      2 15.999
mass      3 1.008
mass      4  35.450

# potential
pair_style deepmd graph-compress.pb
Summary of lammps deepmd module ...
  >>> Info of deepmd-kit:
  installed to:       /work/home/wys974137909/shangcheng/deepmd-kit/20240715/deepmd-kit_v2.2.9/install
  source:             v2.2.9
  source branch:      HEAD
  source commit:      be43748
  source commit at:   2024-02-04 13:44:12 +0800
  support model ver.: 1.1 
  build variant:      rocm
  build with tf inc:  /work/home/wys974137909/shangcheng/miniconda3/envs/deepmd-kit-v2.2.9/lib/python3.8/site-packages/tensorflow/include;/work/home/wys974137909/shangcheng/miniconda3/envs/deepmd-kit-v2.2.9/lib/python3.8/site-packages/tensorflow/include
  build with tf lib:  /work/home/wys974137909/shangcheng/miniconda3/envs/deepmd-kit-v2.2.9/lib/python3.8/site-packages/tensorflow/lib/libtensorflow_cc.so
  set tf intra_op_parallelism_threads: 0
  set tf inter_op_parallelism_threads: 0
  >>> Info of lammps module:
  use deepmd-kit at:  /work/home/wys974137909/shangcheng/deepmd-kit/20240715/deepmd-kit_v2.2.9/install
  source:             v2.2.9
  source branch:      HEAD
  source commit:      be43748
  source commit at:   2024-02-04 13:44:12 +0800
  build float prec:   double
  build with tf inc:  /work/home/wys974137909/shangcheng/miniconda3/envs/deepmd-kit-v2.2.9/lib/python3.8/site-packages/tensorflow/include;/work/home/wys974137909/shangcheng/miniconda3/envs/deepmd-kit-v2.2.9/lib/python3.8/site-packages/tensorflow/include
  build with tf lib:  /work/home/wys974137909/shangcheng/miniconda3/envs/deepmd-kit-v2.2.9/lib/python3.8/site-packages/tensorflow/lib/libtensorflow_cc.so
pair_coeff * *

# 固定原子受力、速度为 0
group fixed id 1:168
168 atoms in group fixed
group mobile subtract all fixed
171 atoms in group mobile
fix freeze_fixed fixed setforce 0.0 0.0 0.0
velocity fixed set 0 0 0

# 在z=27处添加硬性反射墙
fix wall1 mobile wall/reflect zhi 26

# 计算mobile组的温度
compute mTemp mobile temp
thermo 50
thermo_style custom step temp c_mTemp pe ke etotal press
velocity mobile  create 298.15 12345 mom yes rot yes

#fix ensemble mobile  nvt temp 298.15 298.15 1
#timestep 0.0005
#run 15000
#unfix ensemble        # 结束预平衡的NVT

fix ensemble mobile  nvt temp 298.15 298.15 1
fix meta  all colvars pmf.in tstat ensemble
timestep 0.0005
dump trace all custom 10 md.lammpstrj id type x y z
run 200000

CITE-CITE-CITE-CITE-CITE-CITE-CITE-CITE-CITE-CITE-CITE-CITE-CITE

Your simulation uses code contributions which should be cited:

- GPU package (short-range, long-range and three-body potentials): doi:10.1016/j.cpc.2010.12.021, doi:10.1016/j.cpc.2011.10.012, doi:10.1016/j.cpc.2013.08.002, doi:10.1016/j.commatsci.2014.10.068, doi:10.1016/j.cpc.2016.10.020, doi:10.3233/APC200086

@Article{Brown11,
 author = {W. M. Brown and P. Wang and S. J. Plimpton and A. N. Tharrington},
 title = {Implementing Molecular Dynamics on Hybrid High Performance Computers---Short Range Forces},
 journal = {Comput.\ Phys.\ Commun.},
 year =    2011,
 volume =  182,
 pages =   {898--911},
 doi =     {10.1016/j.cpc.2010.12.021}
}

@Article{Brown12,
 author = {W. M. Brown and A. Kohlmeyer and S. J. Plimpton and A. N. Tharrington},
 title = {Implementing Molecular Dynamics on Hybrid High Performance Computers - Particle-Particle Particle-Mesh},
 journal = {Comput.\ Phys.\ Commun.},
 year =    2012,
 volume =  183,
 doi =     {10.1016/j.cpc.2011.10.012},
 pages =   {449--459}
}

@Article{Brown13,
 author = {W. M. Brown and Y. Masako},
 title = {Implementing Molecular Dynamics on Hybrid High Performance Computers---Three-Body Potentials},
 journal = {Comput.\ Phys.\ Commun.},
 year =    2013,
 volume =  184,
 pages =   {2785--2793},
 doi =     {10.1016/j.cpc.2013.08.002},
}

@Article{Trung15,
 author = {T. D. Nguyen and S. J. Plimpton},
 title = {Accelerating Dissipative Particle Dynamics Simulations for Soft Matter Systems},
 journal = {Comput.\ Mater.\ Sci.},
 year =    2015,
 doi =     {10.1016/j.commatsci.2014.10.068},
 volume =  100,
 pages =   {173--180}
}

@Article{Trung17,
 author = {T. D. Nguyen},
 title = {{GPU}-Accelerated {T}ersoff Potentials for Massively Parallel
    Molecular Dynamics Simulations},
 journal = {Comput.\ Phys.\ Commun.},
 year =    2017,
 doi =     {10.1016/j.cpc.2016.10.020},
 volume =  212,
 pages =   {113--122}
}

@inproceedings{Nikolskiy19,
 author = {V. Nikolskiy and V. Stegailov},
 title = {{GPU} Acceleration of Four-Site Water Models in {LAMMPS}},
 booktitle = {Proceedings of the International Conference on Parallel
    Computing (ParCo 2019), Prague, Czech Republic},
 doi =     {10.3233/APC200086},
 year =    2019
}

- USER-DEEPMD package:

@article{Wang_ComputPhysCommun_2018_v228_p178,
  author = {Wang, Han and Zhang, Linfeng and Han, Jiequn and E, Weinan},
  doi = {10.1016/j.cpc.2018.03.016},
  url = {https://doi.org/10.1016/j.cpc.2018.03.016},
  year = 2018,
  month = {jul},
  publisher = {Elsevier {BV}},
  volume = 228,
  journal = {Comput. Phys. Commun.},
  title = {{DeePMD-kit: A deep learning package for many-body potential energy representation and molecular dynamics}},
  pages = {178--184}
}
@misc{Zeng_JChemPhys_2023_v159_p054801,
  title  = {{DeePMD-kit v2: A software package for deep potential models}},
  author =   {Jinzhe Zeng and Duo Zhang and Denghui Lu and Pinghui Mo and Zeyu Li
         and Yixiao Chen and Mari{\'a}n Rynik and Li'ang Huang and Ziyao Li and 
         Shaochen Shi and Yingze Wang and Haotian Ye and Ping Tuo and Jiabin
         Yang and Ye Ding and Yifan Li and Davide Tisi and Qiyu Zeng and Han 
         Bao and Yu Xia and Jiameng Huang and Koki Muraoka and Yibo Wang and 
         Junhan Chang and Fengbo Yuan and Sigbj{\o}rn L{\o}land Bore and Chun
         Cai and Yinnian Lin and Bo Wang and Jiayan Xu and Jia-Xin Zhu and 
         Chenxing Luo and Yuzhi Zhang and Rhys E A Goodall and Wenshuo Liang
         and Anurag Kumar Singh and Sikai Yao and Jingchao Zhang and Renata
         Wentzcovitch and Jiequn Han and Jie Liu and Weile Jia and Darrin M
         York and Weinan E and Roberto Car and Linfeng Zhang and Han Wang},
  journal =  {J. Chem. Phys.},
  volume =   159,
  issue =    5,  
  year =    2023,
  pages  =   054801,
  doi =      {10.1063/5.0155600},
}

CITE-CITE-CITE-CITE-CITE-CITE-CITE-CITE-CITE-CITE-CITE-CITE-CITE

Generated 0 of 6 mixed pair_coeff terms from geometric mixing rule
Neighbor list info ...
  update: every = 1 steps, delay = 0 steps, check = yes
  max neighbors/atom: 2000, page size: 100000
  master list distance cutoff = 8
  ghost atom cutoff = 8
  binsize = 4, bins = 3 4 8
  1 neighbor lists, perpetual/occasional/extra = 1 0 0
  (1) pair deepmd, perpetual
      attributes: full, newton on
      pair build: full/bin/atomonly
      stencil: full/bin/3d
      bin: standard
colvars: Creating proxy instance
colvars: ----------------------------------------------------------------------
colvars: Initializing the collective variables module, version 2023-05-01.
colvars: Please cite Fiorin et al, Mol Phys 2013:
colvars:   https://doi.org/10.1080/00268976.2013.813594
colvars: as well as all other papers listed below for individual features used.
colvars: This version was built with the C++11 standard or higher.
colvars: Using LAMMPS interface, version "2023-04-12".
colvars: ----------------------------------------------------------------------
colvars: Reading new configuration from file "pmf.in":
colvars: # units = "" [default]
colvars: # smp = on [default]
colvars: # colvarsTrajFrequency = 100 [default]
colvars: # colvarsRestartFrequency = 0 [default]
colvars: # scriptedColvarForces = off [default]
colvars: # scriptingAfterBiases = off [default]
colvars: ----------------------------------------------------------------------
colvars:   Initializing a new collective variable.
colvars:   # name = "d"
colvars:   Initializing a new "distance" component.
colvars:     # name = "" [default]
colvars:     # componentCoeff = 1 [default]
colvars:     # componentExp = 1 [default]
colvars:     # period = 0 [default]
colvars:     # wrapAround = 0 [default]
colvars:     # forceNoPBC = off [default]
colvars:     # scalable = on [default]
colvars:       Initializing atom group "group1".
colvars:       # name = "" [default]
colvars:       # centerToOrigin = off [default]
colvars:       # centerToReference = off [default]
colvars:       # rotateToReference = off [default]
colvars:       # atomsOfGroup = "" [default]
colvars:       # indexGroup = "" [default]
colvars:       # psfSegID =  [default]
colvars:       # atomsFile = "" [default]
colvars:       # dummyAtom = ( 0 , 0 , 0 ) [default]
colvars:       # enableFitGradients = on [default]
colvars:       # printAtomIDs = off [default]
colvars:       Atom group "group1" defined with 1 atoms requested.
colvars:       Initializing atom group "group2".
colvars:       # name = "" [default]
colvars:       # centerToOrigin = off [default]
colvars:       # centerToReference = off [default]
colvars:       # rotateToReference = off [default]
colvars:       # atomsOfGroup = "" [default]
colvars:       # indexGroup = "" [default]
colvars:       # psfSegID =  [default]
colvars:       # atomsFile = "" [default]
colvars:       # dummyAtom = ( 0 , 0 , 0 ) [default]
colvars:       # enableFitGradients = on [default]
colvars:       # printAtomIDs = off [default]
colvars:       Atom group "group2" defined with 1 atoms requested.
colvars:     # oneSiteSystemForce = off [default]
colvars:     # oneSiteTotalForce = off [default]
colvars:   All components initialized.
colvars:   # timeStepFactor = 1 [default]
colvars:   # width = 0.02
colvars:   # lowerBoundary = 0.3
colvars:   # upperBoundary = 4
colvars:   # hardLowerBoundary = on
colvars:   # hardUpperBoundary = on
colvars:   # expandBoundaries = off [default]
colvars:   # extendedLagrangian = off [default]
colvars:   # outputValue = on [default]
colvars:   # outputVelocity = off [default]
colvars:   # outputTotalForce = on
colvars:   # outputAppliedForce = on
colvars:   # subtractAppliedForce = off [default]
colvars:   # runAve = off [default]
colvars:   # corrFunc = off [default]
colvars: ----------------------------------------------------------------------
colvars: Collective variables initialized, 1 in total.
colvars: ----------------------------------------------------------------------
colvars:   Initializing a new "metadynamics" instance.
colvars:   # name = "metadynamics1" [default]
colvars:   # colvars = { d }
colvars:   # stepZeroData = off [default]
colvars:   # outputEnergy = off [default]
colvars:   # outputFreq = 0 [default]
colvars:   # timeStepFactor = 1 [default]
colvars:   # writeTISamples = on
colvars:   # writeTIPMF = on
colvars:   # hillWeight = 0.08
colvars:   # newHillFrequency = 200
colvars:   # gaussianSigmas =  [default]
colvars:   # hillWidth = 1
colvars:   Half-widths of the Gaussian hills (sigma's):
colvars:   d: 0.01
colvars:   # multipleReplicas = off [default]
colvars:   # useGrids = on [default]
colvars:   # gridsUpdateFrequency = 200 [default]
colvars:   # rebinGrids = off [default]
colvars:   # writeFreeEnergyFile = on [default]
colvars:   # keepHills = off [default]
colvars:   # keepFreeEnergyFiles = off [default]
colvars:   # writeHillsTrajectory = off [default]
colvars:   # wellTempered = off [default]
colvars:   # biasTemperature = 800
colvars:   # ebMeta = off [default]
colvars: ----------------------------------------------------------------------
colvars: Collective variables biases initialized, 1 in total.
colvars: ----------------------------------------------------------------------
colvars: Collective variables module (re)initialized.
colvars: ----------------------------------------------------------------------
colvars: Re-initialized atom group for variable "d":0/0. 1 atoms: total mass = 1.008, total charge = 0.
colvars: Re-initialized atom group for variable "d":0/1. 1 atoms: total mass = 1.008, total charge = 0.
colvars: The restart output state file will be "rest.colvars.state".
colvars: The final output state file will be "out.colvars.state".
Per MPI rank memory allocation (min/avg/max) = 3.124 | 3.153 | 3.169 Mbytes
   Step          Temp         c_mTemp         PotEng         KinEng         TotEng         Press     
         0   149.9571       298.15        -2246.4242      6.5516151     -2239.8725     -14917.607    
        50   170.26374      338.52438     -2243.7831      7.4388107     -2236.3443     -15973.328    
       100   180.27753      358.43415     -2244.2152      7.8763124     -2236.3389     -18881.711    
       150   191.86534      381.47344     -2244.7719      8.3825832     -2236.3893     -14363.81     
       200   196.13974      389.97196     -2244.8965      8.5693314     -2236.3271     -16129.647    
       250   166.13421      330.31391     -2243.3374      7.258392      -2236.079      -17146.324    
       300   210.90067      419.32015     -2245.341       9.2142352     -2236.1267     -14038.199    
       350   211.11049      419.73732     -2245.3803      9.2234022     -2236.1569     -14821.223    
       400   196.78782      391.26049     -2244.735       8.5976459     -2236.1373     -15561.901    
       450   205.20464      407.99511     -2244.7141      8.9653762     -2235.7487     -15247.209    
       500   198.82539      395.31166     -2244.471       8.6866673     -2235.7843     -16845.373    
       550   206.80746      411.1819      -2244.8629      9.0354035     -2235.8275     -16592.58     
       600   228.66211      454.63408     -2245.8571      9.9902315     -2235.8669     -14943.488    
       650   202.94724      403.50686     -2244.7802      8.8667504     -2235.9134     -11857.25     
       700   215.73535      428.93263     -2245.2793      9.425462      -2235.8538     -13560.149    
       750   208.69773      414.94019     -2245.0017      9.117989      -2235.8837     -14220.508    
       800   194.17156      386.05875     -2244.457       8.4833416     -2235.9737     -15933.917    
       850   208.55536      414.65714     -2245.0897      9.1117691     -2235.9779     -16070.571    
       900   193.99661      385.7109      -2244.5606      8.4756979     -2236.0849     -12797.274    
       950   214.87212      427.21634     -2245.2371      9.3877479     -2235.8494     -15572.348    
      1000   186.84439      371.4906      -2244.0902      8.1632179     -2235.927      -12922.309    
      1050   201.97363      401.5711      -2244.4202      8.8242135     -2235.596      -17392.609    
      1100   201.79371      401.21339     -2243.3954      8.8163531     -2234.579      -10829.365    
      1150   211.51203      420.53569     -2243.8857      9.2409457     -2234.6447     -14037.185    
      1200   243.01522      483.17143     -2244.8862      10.617318     -2234.2689     -16276.029    
      1250   205.36554      408.31501     -2243.0612      8.9724057     -2234.0887     -13760.69     
      1300   211.68305      420.8757      -2243.2007      9.2484173     -2233.9522     -16954.785    
      1350   219.89122      437.19549     -2243.2768      9.607032      -2233.6698     -13634.774    
      1400   228.07715      453.47104     -2243.252       9.9646746     -2233.2873     -13941.676    
      1450   229.5707       456.44057     -2243.0636      10.029928     -2233.0337     -16614.721    
      1500   250.367        497.7885      -2243.5932      10.938516     -2232.6547     -13497.877    
      1550   215.76615      428.99387     -2242.1875      9.4268076     -2232.7606     -15707.771    
      1600   225.72619      448.79678     -2242.5346      9.8619614     -2232.6726     -13643.466    
      1650   198.68837      395.03923     -2241.294       8.6806807     -2232.6133     -14804.595    
      1700   210.08172      417.69188     -2241.8586      9.1784553     -2232.6801     -12441.821    
      1750   236.58425      470.38515     -2242.5846      10.336349     -2232.2483     -14826.379    
      1800   214.51694      426.51015     -2241.0757      9.3722298     -2231.7034     -15501.543    
      1850   230.91031      459.10402     -2241.7892      10.088455     -2231.7008     -12019.748    
      1900   228.67251      454.65476     -2241.5786      9.9906859     -2231.5879     -15773.502    
      1950   243.56768      484.26985     -2241.79        10.641455     -2231.1486     -12989.972    
      2000   217.2854       432.0145      -2240.6207      9.4931836     -2231.1276     -16466.926    
      2050   238.4988       474.19173     -2241.5247      10.419996     -2231.1047     -10930.065    
      2100   254.06765      505.14626     -2242.1604      11.100197     -2231.0602     -14732.967    
      2150   227.78296      452.88612     -2240.7527      9.9518213     -2230.8009     -12684.811    
      2200   257.63965      512.24824     -2242.1408      11.256258     -2230.8846     -11252.74     
      2250   232.64635      462.55568     -2241.1216      10.164302     -2230.9573     -12349.997    
      2300   230.47676      458.24204     -2241.105       10.069513     -2231.0355     -13921.82     
      2350   227.37524      452.07547     -2241.0478      9.934008      -2231.1138     -12277.294    
      2400   224.21054      445.78332     -2240.9843      9.7957427     -2231.1885     -13062.489    
      2450   204.72965      407.05071     -2240.215       8.9446238     -2231.2703     -13868.895    
      2500   207.23962      412.04113     -2240.4047      9.0542843     -2231.3504     -13019.343    
      2550   211.03954      419.59626     -2240.6473      9.2203025     -2231.427      -11199.547    
      2600   217.03166      431.51001     -2240.9831      9.4820978     -2231.501      -11960.692    
      2650   213.90492      425.2933      -2240.9249      9.3454906     -2231.5794     -13324.049    
      2700   214.62545      426.72589     -2241.0295      9.3769705     -2231.6525     -11860.266    
      2750   218.216        433.86476     -2241.2697      9.5338417     -2231.7358     -11707.899    
      2800   220.31583      438.03971     -2241.4452      9.625583      -2231.8196     -12012.543    
      2850   211.6333       420.7768      -2241.1396      9.246244      -2231.8934     -13818.222    
      2900   217.48851      432.41833     -2241.4874      9.5020575     -2231.9854     -16384.433    
      2950   192.28861      382.315       -2240.4584      8.4010758     -2232.0573     -12835.103    
      3000   206.58323      410.73607     -2241.1633      9.0256066     -2232.1377     -10581.963    
      3050   209.12381      415.78735     -2241.3548      9.1366046     -2232.2182     -13598.245    
      3100   206.74185      411.05145     -2241.3179      9.0325369     -2232.2854     -14886.079    
      3150   215.99017      429.43929     -2241.8051      9.4365953     -2232.3685     -12452.762    
      3200   203.70512      405.01371     -2241.3333      8.8998623     -2232.4335     -12571.752    
      3250   192.76896      383.27006     -2240.9343      8.4220624     -2232.5122     -16640.775    
      3300   206.01043      409.59721     -2241.5889      9.000581      -2232.5883     -10779.243    
      3350   193.78392      385.28804     -2241.1296      8.4664059     -2232.6632     -15069.99     
      3400   203.62319      404.85082     -2241.6311      8.8962829     -2232.7348     -10807.231    
      3450   193.72938      385.17959     -2241.2706      8.4640229     -2232.8066     -11157.851    
      3500   203.1969       404.00324     -2241.7719      8.877658      -2232.8942     -11825.996    
      3550   199.18321      396.0231      -2241.6704      8.7023005     -2232.9681     -11817.871    
      3600   196.76706      391.21922     -2241.656       8.596739      -2233.0593     -9847.5711    
      3650   201.27114      400.17439     -2241.861       8.7935219     -2233.0675     -13558.916    
      3700   205.05314      407.6939      -2242.104       8.9587573     -2233.1452     -11749.232    
      3750   197.27182      392.2228      -2241.8354      8.618792      -2233.2166     -10865.72     
      3800   203.95419      405.50892     -2242.1974      8.9107442     -2233.2867     -14342.856    
      3850   204.80269      407.19593     -2242.3216      8.9478148     -2233.3738     -11939.399    
      3900   189.10653      375.98828     -2241.7075      8.2620508     -2233.4455     -12705.884    
      3950   211.0566       419.63017     -2242.7516      9.2210477     -2233.5306     -12175.166    
      4000   198.66417      394.99112     -2242.2817      8.6796237     -2233.6021     -10575.829    
      4050   192.12007      381.97991     -2242.0322      8.3937123     -2233.6385     -13552.469    
      4100   182.53742      362.92735     -2241.6766      7.9750471     -2233.7016     -14346.528    
      4150   187.97019      373.72896     -2241.9928      8.2124042     -2233.7804     -12546.797    
      4200   199.51678      396.6863      -2242.5709      8.7168738     -2233.854      -12953.256    
      4250   199.91532      397.47869     -2242.6618      8.7342859     -2233.9275     -15359.908    
      4300   187.28496      372.36656     -2242.1845      8.1824664     -2234.002      -11269.141    
      4350   185.30594      368.43181     -2242.167       8.0960035     -2234.071      -12712.903    
      4400   196.66257      391.01147     -2242.7476      8.5921738     -2234.1554     -8386.1969    
      4450   176.31774      350.56115     -2241.9217      7.7033095     -2234.2184     -15356.182    
      4500   181.42398      360.71355     -2242.2204      7.9264006     -2234.294      -11420.835    
      4550   179.98343      357.84941     -2242.2261      7.8634634     -2234.3626     -16754.868    
      4600   177.0149       351.94728     -2242.1574      7.7337686     -2234.4236     -10385.427    
      4650   182.37575      362.6059      -2242.4628      7.9679835     -2234.4948     -13202.554    
      4700   189.51541      376.80123     -2242.8413      8.2799149     -2234.5614     -12202.248    
      4750   182.33608      362.52704     -2242.5877      7.9662506     -2234.6215     -14681.088    
      4800   180.44501      358.76713     -2242.5817      7.8836295     -2234.6981     -12386.168    
      4850   194.44483      386.60207     -2243.2521      8.4952807     -2234.7569     -9376.5832    
      4900   191.45405      380.6557      -2243.1906      8.3646139     -2234.826      -13804.08     
      4950   193.89881      385.51646     -2243.3728      8.4714254     -2234.9014     -12430.932    
      5000   193.27978      384.28569     -2243.4076      8.44438       -2234.9633     -9814.4997    
      5050   164.49814      327.06101     -2242.2153      7.1869121     -2235.0284     -15688.369    
      5100   176.82441      351.56853     -2242.8254      7.7254459     -2235.1        -12814.491    
      5150   182.64802      363.14724     -2243.1419      7.9798791     -2235.162      -13359.256    
      5200   185.151        368.12375     -2243.316       8.0892339     -2235.2267     -14514.246    
      5250   158.49987      315.13504     -2242.2016      6.9248481     -2235.2767     -12197.761    
      5300   170.9281       339.84528     -2242.8125      7.4678364     -2235.3447     -11629.641    
      5350   191.31222      380.37371     -2243.7629      8.3584173     -2235.4045     -14413.601    
      5400   167.22115      332.47499     -2242.7658      7.3058801     -2235.46       -13722.866    
      5450   173.83113      345.61719     -2243.1238      7.5946698     -2235.5291     -14301.557    
      5500   167.50559      333.04052     -2242.9035      7.3183073     -2235.5852     -12778.551    
      5550   176.41047      350.74552     -2243.3593      7.7073608     -2235.6519     -11076.165    
      5600   179.18178      356.25553     -2243.5338      7.8284391     -2235.7054     -14576.268    
      5650   171.66377      341.30797     -2243.2652      7.499978      -2235.7652     -10261.372    
      5700   197.48637      392.64938     -2244.4646      8.6281656     -2235.8364     -13725.721    
      5750   190.20279      378.16789     -2244.2092      8.3099463     -2235.8993     -12371.442    
      5800   195.55397      388.80731     -2244.5117      8.5437392     -2235.968      -11316.376    
      5850   186.88605      371.57344     -2244.1958      8.1650382     -2236.0308     -12951.043    
      5900   175.59991      349.13394     -2243.7713      7.6719475     -2236.0993     -13478.028    
      5950   175.5874       349.10907     -2243.8378      7.6714011     -2236.1664     -13429.112    
      6000   166.24372      330.53162     -2243.4836      7.2631761     -2236.2204     -12478.671    
      6050   175.86294      349.6569      -2243.971       7.6834394     -2236.2876     -15222.874    
      6100   200.14128      397.92796     -2245.1043      8.7441583     -2236.3602     -11144.23     
      6150   182.94204      363.73181     -2244.4083      7.9927246     -2236.4156     -15310.894    
      6200   175.22153      348.38162     -2244.1299      7.6554161     -2236.4745     -10812.233    
      6250   177.43747      352.78744     -2244.2929      7.7522305     -2236.5407     -13315.795    
      6300   159.03093      316.1909      -2243.5413      6.9480499     -2236.5933     -11402.073    
      6350   174.69584      347.33643     -2244.2886      7.6324487     -2236.6562     -14402.099    
      6400   189.78214      377.33154     -2245.0231      8.2915681     -2236.7316     -13939.4      
      6450   182.27872      362.41299     -2244.7594      7.9637444     -2236.7957     -13308.868    
      6500   179.05609      356.00564     -2244.6805      7.8229478     -2236.8576     -11212.257    
      6550   177.23936      352.39356     -2244.6627      7.7435752     -2236.9192     -15905.863    
      6600   172.94337      343.85212     -2244.5355      7.5558837     -2236.9796     -9659.9716    
      6650   172.14976      342.27423     -2244.5592      7.5212109     -2237.038      -14739.319    
      6700   177.73998      353.3889      -2244.8726      7.765447      -2237.1071     -13806.883    
      6750   176.39028      350.70538     -2244.8762      7.7064789     -2237.1697     -13430.215    
      6800   157.92559      313.99322     -2244.1221      6.8997576     -2237.2223     -11451.914    
      6850   169.48384      336.97374     -2244.6943      7.4047368     -2237.2895     -11642.85     
      6900   172.26652      342.50638     -2244.8702      7.5263122     -2237.3438     -13809.744    
      6950   168.76436      335.54325     -2244.771       7.3733029     -2237.3977     -15189.736    
      7000   169.47648      336.95911     -2244.8631      7.4044152     -2237.4587     -10286.467    
      7050   173.03079      344.02592     -2245.071       7.5597028     -2237.5113     -12962.516    
      7100   194.47403      386.66013     -2246.0824      8.4965565     -2237.5859     -15067.765    
      7150   168.29609      334.61223     -2244.9951      7.3528444     -2237.6423     -15353.668    
      7200   159.6525       317.42673     -2244.6716      6.9752063     -2237.6964     -11810.067    
      7250   172.74821      343.46409     -2245.3013      7.547357      -2237.754      -15138.574    
      7300   168.63182      335.27973     -2245.1822      7.367512      -2237.8147     -10419.408    
      7350   159.73845      317.59762     -2244.8479      6.9789614     -2237.8689     -13813.139    
      7400   174.22592      346.40213     -2245.5457      7.6119182     -2237.9338     -9602.6094    
      7450   156.1851       310.53274     -2244.8008      6.8237161     -2237.9771     -13010.162    
      7500   186.03062      369.87265     -2246.1788      8.1276646     -2238.0511     -12191.217    
      7550   161.03346      320.17241     -2245.1308      7.0355405     -2238.0952     -11648.052    
      7600   163.69698      325.46812     -2245.2985      7.1519096     -2238.1466     -12940.533    
      7650   180.15745      358.1954      -2246.0798      7.8710662     -2238.2088     -13482.121    
      7700   164.17634      326.4212      -2245.4266      7.1728528     -2238.2537     -10615.179    
      7750   152.11625      302.4429      -2244.9508      6.6459482     -2238.3048     -11766.372    
      7800   159.16015      316.44782     -2245.3034      6.9536954     -2238.3497     -11548.301    
      7850   165.99233      330.03181     -2245.6534      7.2521932     -2238.4012     -14878.872    
      7900   158.27918      314.69626     -2245.3654      6.9152062     -2238.4502     -10240.525    
      7950   162.36768      322.82516     -2245.5978      7.0938326     -2238.504      -14729.709    
      8000   159.99449      318.1067      -2245.5383      6.990148      -2238.5482     -14378.145    
      8050   161.32275      320.74758     -2245.6523      7.0481794     -2238.6041     -11702.614    
      8100   152.78788      303.77825     -2245.3247      6.6752916     -2238.6494     -15008.886    
      8150   154.81696      307.81254     -2245.4568      6.7639418     -2238.6928     -11769.142    
      8200   171.2805       340.54593     -2246.2322      7.4832329     -2238.749      -13914.606    
      8250   166.97305      331.98171     -2246.0931      7.2950408     -2238.798      -11860.291    
      8300   167.95548      333.93502     -2246.1862      7.3379631     -2238.8483     -12287.416    
      8350   164.26146      326.59043     -2246.0699      7.1765714     -2238.8933     -13891.81     
      8400   170.98257      339.95358     -2246.4141      7.4702163     -2238.9438     -12825.411    
      8450   163.89591      325.86363     -2246.1485      7.1606006     -2238.9879     -10866.494    
      8500   157.4271       313.00212     -2245.9044      6.877979      -2239.0264     -13378.57     
      8550   165.91823      329.88449     -2246.3284      7.2489558     -2239.0794     -12537.628    
      8600   167.40311      332.83677     -2246.4436      7.31383       -2239.1298     -12383.615    
      8650   151.18014      300.58168     -2245.776       6.6050494     -2239.1709     -12799.7      
      8700   155.57785      309.32538     -2246.0046      6.7971853     -2239.2074     -11886.454    
      8750   171.99563      341.96779     -2246.7726      7.5144769     -2239.2581     -14399.008    
      8800   159.7765       317.67327     -2246.282       6.9806239     -2239.3014     -13650.819    
      8850   147.89239      294.04486     -2245.8139      6.4614079     -2239.3525     -15700.486    
      8900   164.52015      327.10478     -2246.5829      7.1878738     -2239.395      -10182.216    
      8950   143.6959       285.70126     -2245.708       6.2780637     -2239.43       -13111.704    
      9000   157.80191      313.74733     -2246.3717      6.8943544     -2239.4773     -12775.695    
      9050   159.76135      317.64315     -2246.5034      6.979962      -2239.5234     -14145.817    
      9100   160.15113      318.41814     -2246.5633      6.9969916     -2239.5663     -12422.513    
      9150   175.20397      348.34672     -2247.2711      7.654649      -2239.6164     -15310.901    
      9200   174.65227      347.24981     -2247.2838      7.6305454     -2239.6533     -12739.59     
      9250   161.86308      321.82189     -2246.7747      7.0717864     -2239.7029     -13442.792    
      9300   185.35627      368.53188     -2247.8544      8.0982024     -2239.7562     -13883.443    
      9350   166.23592      330.51613     -2247.0672      7.2628356     -2239.8044     -10357.82     
      9400   166.30589      330.65525     -2247.12        7.2658927     -2239.8541     -12682.2      
      9450   146.28719      290.85335     -2246.2833      6.3912769     -2239.892      -13363.028    
      9500   155.7631       309.6937      -2246.7436      6.8052789     -2239.9383     -13980.485    
      9550   141.92075      282.17184     -2246.1725      6.2005073     -2239.972      -14464.675    
      9600   159.85067      317.82075     -2247.0056      6.9838646     -2240.0217     -13946.473    
      9650   162.0836       322.26033     -2247.1413      7.0814209     -2240.0599     -13094.081    
      9700   166.23413      330.51256     -2247.3597      7.2627571     -2240.0969     -11566.384    
      9750   170.49101      338.97624     -2247.5959      7.4487399     -2240.1472     -9919.2301    
      9800   163.1462       324.37304     -2247.3135      7.127846      -2240.1857     -11794.928    
      9850   164.51474      327.094       -2247.4237      7.1876371     -2240.2361     -14836.284    
      9900   150.21443      298.66163     -2246.8328      6.5628578     -2240.2699     -12536.447    
      9950   144.02139      286.34842     -2246.605       6.2922845     -2240.3127     -12471.673    
     10000   154.3331       306.85051     -2247.0979      6.742802      -2240.3551     -9829.8117    
     10050   160.64173      319.39356     -2247.423       7.0184258     -2240.4046     -14382.92     
     10100   165.90228      329.85277     -2247.6867      7.2482589     -2240.4384     -15711.017    
     10150   178.72392      355.34521     -2248.2899      7.8084354     -2240.4814     -14184.375    
     10200   174.33192      346.61288     -2248.1404      7.6165493     -2240.5238     -14337.831    
     10250   148.5175       295.28773     -2247.0471      6.4887189     -2240.5584     -10889.496    
     10300   154.26499      306.7151      -2247.3425      6.7398264     -2240.6027     -11814.595    
     10350   146.47937      291.23545     -2247.0367      6.3996732     -2240.637      -12055.861    
     10400   154.84508      307.86846     -2247.4411      6.7651706     -2240.6759     -14369.341    
     10450   157.88831      313.91911     -2247.6114      6.8981291     -2240.7133     -12739.086    
     10500   149.3381       296.91928     -2247.2705      6.5245709     -2240.7459     -15310.828    
     10550   155.03559      308.24724     -2247.5646      6.7734941     -2240.7911     -12103.647    
     10600   148.63165      295.51469     -2247.3187      6.4937062     -2240.825      -14294.201    
     10650   154.38655      306.95678     -2247.6031      6.7451372     -2240.858      -15513.383    
     10700   152.7952       303.79281     -2247.5754      6.6756115     -2240.8997     -13682.086    
     10750   156.49787      311.15459     -2247.7715      6.8373808     -2240.9341     -13638.741    
     10800   148.71935      295.68907     -2247.4643      6.497538      -2240.9668     -13458.855    
     10850   141.91008      282.15063     -2247.1942      6.2000413     -2240.9941     -11769.913    
     10900   145.53553      289.35889     -2247.3929      6.3584372     -2241.0345     -11089.05     
     10950   147.70587      293.67401     -2247.5224      6.4532588     -2241.0692     -13501.781    
     11000   143.75644      285.82163     -2247.384       6.2807088     -2241.1033     -14536.834    
     11050   145.94593      290.17484     -2247.5217      6.3763671     -2241.1453     -13391.539    
     11100   149.66843      297.57606     -2247.7114      6.5390031     -2241.1724     -11473.047    
     11150   142.31625      282.95818     -2247.4218      6.2177867     -2241.2041     -10773.245    
     11200   138.12084      274.61672     -2247.2649      6.0344895     -2241.2304     -13241.75     
     11250   143.85685      286.02126     -2247.5428      6.2850955     -2241.2577     -10155.805    
     11300   144.22622      286.75566     -2247.5974      6.3012333     -2241.2962     -13371.261    
     11350   150.10116      298.43643     -2247.8778      6.5579091     -2241.3199     -14362.444    
     11400   143.51617      285.34391     -2247.6156      6.2702112     -2241.3454     -12579.414    
     11450   138.97347      276.31195     -2247.4381      6.0717409     -2241.3664     -13317.929    
     11500   140.64616      279.63766     -2247.5394      6.1448208     -2241.3946     -13070.914    
     11550   148.96454      296.17655     -2247.9331      6.5082501     -2241.4249     -12913.855    
     11600   143.29254      284.89929     -2247.7083      6.2604411     -2241.4479     -13570.722    
     11650   148.66783      295.58662     -2247.9645      6.4952868     -2241.4692     -11960.28     
     11700   143.30881      284.93164     -2247.7504      6.2611519     -2241.4893     -13407.535    
     11750   150.20104      298.63501     -2248.0713      6.5622729     -2241.5091     -10184.137    
     11800   131.75983      261.96954     -2247.2863      5.7565775     -2241.5297     -14342.966    
     11850   144.34903      286.99984     -2247.8583      6.306599      -2241.5517     -13538.208    
     11900   134.46504      267.34815     -2247.4524      5.8747682     -2241.5776     -13974.219    
     11950   144.5913       287.48152     -2247.9248      6.3171836     -2241.6076     -11545.048    
     12000   132.46751      263.37658     -2247.4059      5.7874961     -2241.6184     -12141.145    
     12050   139.82884      278.01264     -2247.7502      6.1091123     -2241.6411     -13565.296    
     12100   138.13346      274.64182     -2247.6906      6.0350411     -2241.6555     -14995.992    
     12150   133.20895      264.85073     -2247.4866      5.8198894     -2241.6667     -13630.875    
     12200   139.95378      278.26104     -2247.7999      6.1145705     -2241.6854     -15214.326    
     12250   137.47305      273.32877     -2247.7092      6.0061879     -2241.703      -14868.056    
     12300   144.83234      287.96077     -2248.045       6.3277147     -2241.7173     -13210.465    
     12350   141.52972      281.39439     -2247.9205      6.1834235     -2241.737      -12904.845    
     12400   144.95299      288.20064     -2248.082       6.3329856     -2241.749      -13222.713    
     12450   140.50462      279.35625     -2247.9073      6.1386369     -2241.7687     -13080.11     
     12500   144.60946      287.51763     -2248.1015      6.3179769     -2241.7835     -14603.868    
     12550   135.87872      270.15887     -2247.7302      5.9365318     -2241.7937     -15642.712    
     12600   139.78801      277.93146     -2247.9131      6.1073283     -2241.8058     -14349.369    
     12650   144.543        287.38549     -2248.1363      6.3150732     -2241.8212     -16675.54     
     12700   125.37748      249.27994     -2247.3063      5.4777333     -2241.8285     -12917.651    
     12750   146.35201      290.98223     -2248.2358      6.3941089     -2241.8417     -13970.218    
     12800   137.98643      274.34949     -2247.8776      6.0286174     -2241.8489     -16125.849    
     12850   148.06398      294.38603     -2248.3244      6.4689047     -2241.8555     -13454.208    
     12900   141.24156      280.82145     -2248.0372      6.1708337     -2241.8663     -15170.522    
     12950   151.48365      301.18513     -2248.4943      6.6183098     -2241.876      -14499.291    
     13000   137.33291      273.05014     -2247.8834      6.0000652     -2241.8833     -13546.896    
     13050   137.91724      274.21193     -2247.9205      6.0255945     -2241.8949     -13226.094    
     13100   136.86936      272.12849     -2247.8793      5.9798126     -2241.8995     -12521.285    
     13150   138.49479      275.36024     -2247.9592      6.0508277     -2241.9084     -13665.589    
     13200   136.55841      271.51025     -2247.8761      5.9662272     -2241.9098     -14746.962    
     13250   129.26451      257.00827     -2247.5633      5.6475574     -2241.9158     -12897.206    
     13300   142.26961      282.86547     -2248.1417      6.2157494     -2241.926      -15017.966    
     13350   144.63826      287.57489     -2248.2516      6.3192352     -2241.9324     -10898.384    
     13400   128.86592      256.21576     -2247.5642      5.6301427     -2241.9341     -14985.647    
     13450   142.72271      283.76633     -2248.1735      6.2355451     -2241.938      -13144.44     
     13500   146.73319      291.74012     -2248.3498      6.4107628     -2241.9391     -12723.628    
     13550   149.37183      296.98634     -2248.4659      6.5260445     -2241.9398     -14383.66     
     13600   132.77984      263.99757     -2247.7333      5.8011418     -2241.9322     -14585.048    
     13650   135.28966      268.98768     -2247.854       5.9107957     -2241.9432     -11340.443    
     13700   132.59038      263.62087     -2247.7356      5.7928641     -2241.9428     -11450.167    
     13750   130.66249      259.78777     -2247.653       5.7086348     -2241.9443     -13773.93     
     13800   142.70618      283.73346     -2248.1815      6.2348227     -2241.9467     -13002.662    
     13850   139.84292      278.04063     -2248.0602      6.1097274     -2241.9505     -12931.067    
     13900   130.97902      260.4171      -2247.6661      5.7224639     -2241.9436     -12506.134    
     13950   132.16785      262.78077     -2247.7129      5.7744038     -2241.9385     -16615.695    
     14000   138.19449      274.76316     -2247.9803      6.0377073     -2241.9426     -13871.774    
     14050   130.50372      259.4721      -2247.6311      5.7016981     -2241.9294     -12885.31     
     14100   128.42255      255.33424     -2247.5374      5.6107719     -2241.9267     -17112.503    
     14150   128.81842      256.12133     -2247.5452      5.6280675     -2241.9171     -15737.891    
     14200   127.10818      252.72097     -2247.4652      5.5533475     -2241.9119     -12821.546    
     14250   137.83157      274.0416      -2247.9219      6.0218516     -2241.9001     -13753.411    
     14300   134.17549      266.77245     -2247.7578      5.8621178     -2241.8957     -16667.05     
     14350   144.39243      287.08613     -2248.1957      6.3084951     -2241.8872     -14003.99     
     14400   136.26069      270.91831     -2247.8265      5.9532198     -2241.8733     -15747.972    
     14450   148.57271      295.39751     -2248.3538      6.4911312     -2241.8627     -13138.079    
     14500   124.66108      247.85556     -2247.2982      5.4464338     -2241.8517     -14624.573    
     14550   139.45349      277.26636     -2247.9324      6.0927132     -2241.8396     -13634.122    
     14600   146.77764      291.82849     -2248.2439      6.4127049     -2241.8312     -16263.932    
     14650   140.21453      278.77948     -2247.9424      6.125963      -2241.8165     -14665.448    
     14700   146.78781      291.8487      -2248.2123      6.4131488     -2241.7991     -15878.133    
     14750   145.17508      288.64222     -2248.1295      6.3426889     -2241.7868     -14024.076    
     14800   151.81609      301.84611     -2248.4028      6.6328342     -2241.77       -13765.503    
     14850   136.58571      271.56453     -2247.717       5.9674199     -2241.7496     -14429.889    
     14900   138.70088      275.76999     -2247.798       6.0598318     -2241.7382     -14752.738    
     14950   145.71597      289.71763     -2248.0939      6.3663204     -2241.7276     -15392.025    
     15000   144.98971      288.27366     -2248.0461      6.3345901     -2241.7115     -15286.219    
     15050   149.43689      297.1157      -2248.2152      6.5288872     -2241.6863     -13514.477    
     15100   150.54423      299.31734     -2248.2451      6.5772665     -2241.6679     -13662.854    
     15150   149.22723      296.69886     -2248.1677      6.5197273     -2241.6479     -14220.506    
     15200   153.06376      304.32678     -2248.3176      6.687345      -2241.6303     -16492.711    
     15250   143.09837      284.51323     -2247.8675      6.2519576     -2241.6155     -13263.752    
     15300   138.97962      276.32419     -2247.6699      6.0720098     -2241.5978     -13038.268    
     15350   142.27001      282.86626     -2247.7955      6.2157667     -2241.5798     -13863.8      
     15400   155.77808      309.72347     -2248.3748      6.8059332     -2241.5689     -11252.068    
     15450   136.3079       271.01218     -2247.4996      5.9552825     -2241.5443     -18069.061    
     15500   138.74867      275.86501     -2247.5857      6.0619196     -2241.5238     -12841.776    
     15550   145.37197      289.03368     -2247.8578      6.3512911     -2241.5065     -15113.547    
     15600   150.75644      299.73927     -2248.0884      6.5865381     -2241.5018     -10666.757    
     15650   149.87552      297.98781     -2248.0274      6.548051      -2241.4794     -13025.746    
     15700   151.45674      301.13164     -2248.0737      6.6171343     -2241.4565     -13234.604    
     15750   156.0948       310.35318     -2248.2576      6.8197706     -2241.4378     -14530.863    
     15800   160.26159      318.63774     -2248.4172      7.0018173     -2241.4154     -11180.39     
     15850   157.43302      313.01389     -2248.2868      6.8782376     -2241.4086     -12962.919    
     15900   156.05836      310.28074     -2248.2103      6.8181787     -2241.3921     -12259.614    
     15950   146.86848      292.0091      -2247.7864      6.4166735     -2241.3697     -14783.093    
     16000   149.29227      296.82815     -2247.8761      6.5225685     -2241.3535     -11281.607    
     16050   145.27519      288.84126     -2247.682       6.3470627     -2241.335      -13169.626    
     16100   152.41911      303.04505     -2247.9813      6.65918       -2241.3221     -11614.821    
     16150   157.20696      312.56443     -2248.1807      6.8683611     -2241.3123     -13886.02     
     16200   166.81443      331.66633     -2248.5862      7.2881105     -2241.298      -15316.853    
     16250   164.06389      326.19761     -2248.4425      7.1679396     -2241.2745     -12335.313    
     16300   155.0741       308.32379     -2248.0273      6.7751763     -2241.2521     -11847.236    
     16350   155.79155      309.75026     -2248.0472      6.8065218     -2241.2406     -10464.364    
     16400   155.31951      308.81173     -2248.0083      6.7858983     -2241.2224     -13828.123    
     16450   156.16685      310.49645     -2248.0268      6.8229188     -2241.2039     -14263.787    
     16500   156.32095      310.80283     -2248.0168      6.8296513     -2241.1872     -12831.965    
     16550   156.91008      311.97416     -2248.0286      6.8553903     -2241.1732     -11897.646    
     16600   152.72454      303.65231     -2247.8335      6.6725242     -2241.161      -15231.422    
     16650   155.02068      308.21758     -2247.9145      6.7728423     -2241.1416     -14866.577    
     16700   157.37438      312.8973      -2248.0124      6.8756756     -2241.1367     -14797.746    
     16750   148.14718      294.55145     -2247.5856      6.4725397     -2241.1131     -14369.516    
     16800   164.9561       327.97154     -2248.3122      7.2069203     -2241.1053     -14077.101    
     16850   152.06541      302.34182     -2247.7294      6.6437271     -2241.0857     -16658.132    
     16900   151.67552      301.56661     -2247.7047      6.6266925     -2241.078      -11931.942    
     16950   157.49847      313.14401     -2247.9497      6.8810968     -2241.0686     -17063.02     
     17000   155.28379      308.74072     -2247.8368      6.7843379     -2241.0525     -13445.93     
     17050   171.77532      341.52975     -2248.5472      7.5048513     -2241.0423     -17200.331    
     17100   159.32655      316.77868     -2247.9972      6.9609658     -2241.0362     -13320.659    
     17150   150.03774      298.31033     -2247.5804      6.5551382     -2241.0253     -15492.534    
     17200   152.62277      303.44998     -2247.6814      6.6680779     -2241.0133     -16416.715    
     17250   159.01523      316.15969     -2247.9532      6.9473641     -2241.0058     -18449.279    
     17300   152.14887      302.50776     -2247.6429      6.6473735     -2240.9956     -13460.226    
     17350   167.95933      333.94268     -2248.3286      7.3381314     -2240.9905     -15734.804    
     17400   161.31398      320.73016     -2248.0314      7.0477965     -2240.9836     -16871.266    
     17450   166.01996      330.08675     -2248.2314      7.2534005     -2240.978      -15928.115    
     17500   176.03043      349.98991     -2248.6668      7.690757      -2240.976      -13150.065    
     17550   164.93427      327.92813     -2248.1696      7.2059664     -2240.9637     -12450.392    
     17600   147.22592      292.71977     -2247.3893      6.43229       -2240.957      -11761.013    
     17650   160.0476       318.21228     -2247.9506      6.9924682     -2240.9581     -12240.837    
     17700   159.48428      317.09228     -2247.9195      6.967857      -2240.9517     -13595.2      
     17750   151.60619      301.42877     -2247.5692      6.6236636     -2240.9455     -15635.233    
     17800   151.88385      301.98083     -2247.5793      6.6357946     -2240.9435     -15827.328    
     17850   155.51069      309.19184     -2247.7381      6.7942509     -2240.9439     -13089.21     
     17900   147.93947      294.13847     -2247.4014      6.4634649     -2240.938      -11583.689    
     17950   155.74376      309.65524     -2247.74        6.8044338     -2240.9356     -14433.294    
     18000   153.35278      304.9014      -2247.6311      6.6999719     -2240.9311     -14782.582    
     18050   169.93244      337.86567     -2248.3631      7.4243361     -2240.9388     -14479.92     
     18100   167.48605      333.00168     -2248.2525      7.3174537     -2240.9351     -15360.289    
     18150   152.46917      303.14459     -2247.5948      6.6613673     -2240.9334     -13977.167    
     18200   152.28378      302.77599     -2247.5817      6.6532675     -2240.9284     -12411.108    
     18250   160.94526      319.99704     -2247.9605      7.0316869     -2240.9288     -12943.887    
     18300   157.01135      312.1755      -2247.7909      6.8598146     -2240.9311     -15424.657    
     18350   152.08889      302.38851     -2247.5684      6.644753      -2240.9237     -12988.615    
     18400   167.24785      332.52808     -2248.2359      7.3070467     -2240.9288     -15158.695    
     18450   165.26796      328.59159     -2248.1509      7.2205454     -2240.9303     -13905.575    
     18500   151.84849      301.91054     -2247.5633      6.6342499     -2240.929      -15986.621    
     18550   159.93675      317.9919      -2247.9187      6.9876253     -2240.9311     -14665.192    
     18600   142.06923      282.46707     -2247.1438      6.2069948     -2240.9368     -12861.883    
     18650   153.79617      305.78298     -2247.661       6.7193439     -2240.9417     -15004.567    
     18700   152.01584      302.24326     -2247.5789      6.6415613     -2240.9373     -13463.084    
     18750   133.61761      265.66325     -2246.7814      5.837744      -2240.9437     -16486.848    
     18800   146.57117      291.41798     -2247.3443      6.4036842     -2240.9406     -15322.491    
     18850   161.67651      321.45094     -2248.014       7.0636351     -2240.9503     -15249.219    
     18900   148.71935      295.68905     -2247.4557      6.4975377     -2240.9581     -12841.491    
     18950   171.98398      341.94461     -2248.4846      7.5139677     -2240.9706     -14587.591    
     19000   161.29469      320.6918      -2248.0187      7.0469537     -2240.9717     -15971.924    
     19050   154.31264      306.80983     -2247.714       6.7419082     -2240.9721     -13555.838    
     19100   150.58661      299.40162     -2247.555       6.5791185     -2240.9759     -14162.501    
     19150   161.27342      320.6495      -2248.0274      7.0460241     -2240.9814     -16187.524    
     19200   159.47918      317.08214     -2247.9592      6.9676343     -2240.9915     -12392.366    
     19250   166.24892      330.54196     -2248.2612      7.2634034     -2240.9978     -12411.827    
     19300   138.38641      275.14473     -2247.0445      6.0460922     -2240.9984     -12407.359    
     19350   159.13008      316.38803     -2247.9584      6.9523817     -2241.006      -13508.347    
     19400   155.74841      309.66448     -2247.8203      6.8046368     -2241.0156     -14808.531    
     19450   145.57242      289.43222     -2247.3844      6.3600487     -2241.0244     -13555.08     
     19500   145.23451      288.76038     -2247.3702      6.3452855     -2241.0249     -11371.148    
     19550   138.57327      275.51626     -2247.0887      6.0542561     -2241.0344     -17085.085    
     19600   154.32969      306.84373     -2247.7899      6.7426531     -2241.0472     -14202.39     
     19650   148.93015      296.10818     -2247.562       6.5067476     -2241.0553     -14601.743    
     19700   157.42099      312.98997     -2247.9476      6.877712      -2241.0699     -16488.379    
     19750   162.07662      322.24647     -2248.1626      7.0811162     -2241.0815     -13902.828    
     19800   158.65867      315.45077     -2248.0228      6.9317861     -2241.091      -14943.506    
     19850   159.46225      317.04848     -2248.0786      6.9668944     -2241.1117     -10303.907    
     19900   162.7927       323.67019     -2248.2302      7.1124015     -2241.1178     -14743.839    
     19950   160.46696      319.04607     -2248.1333      7.01079       -2241.1225     -14122.028    
     20000   154.38701      306.9577      -2247.8823      6.7451576     -2241.1371     -11852.585    
     20050   169.31213      336.63236     -2248.5436      7.397235      -2241.1464     -11635.653    
     20100   158.5833       315.30092     -2248.0861      6.9284932     -2241.1576     -15662.46     
     20150   156.82589      311.80677     -2248.0269      6.851712      -2241.1752     -9966.5595    
     20200   165.72901      329.50827     -2248.428       7.2406887     -2241.1874     -11853.568    
     20250   151.52239      301.26216     -2247.8191      6.6200024     -2241.1991     -11615.637    
     20300   157.13738      312.42609     -2248.0798      6.8653211     -2241.2145     -16834.477    
     20350   150.81834      299.86236     -2247.8121      6.5892428     -2241.2229     -14789.638    
     20400   164.16014      326.38898     -2248.4166      7.1721447     -2241.2444     -14574.103    
     20450   145.78649      289.85785     -2247.6259      6.3694015     -2241.2565     -12478.62     
     20500   150.48348      299.19656     -2247.8416      6.5746124     -2241.267      -11341.636    
     20550   159.69927      317.51973     -2248.2723      6.97725       -2241.2951     -14981.261    
     20600   164.01268      326.09581     -2248.4742      7.1657025     -2241.3085     -12463.384    
     20650   145.08264      288.45842     -2247.6598      6.3386502     -2241.3211     -15123.983    
     20700   148.16156      294.58004     -2247.8123      6.4731679     -2241.3391     -10687.047    
     20750   157.94493      314.03168     -2248.2646      6.9006026     -2241.3639     -15192.986    
     20800   164.80757      327.67622     -2248.5799      7.2004309     -2241.3795     -12839.276    
     20850   163.15716      324.39482     -2248.5234      7.1283245     -2241.395      -14008.022    
     20900   157.19416      312.53897     -2248.2759      6.8678015     -2241.4081     -13486.609    
     20950   149.07924      296.40461     -2247.9362      6.5132614     -2241.4229     -12269.302    
     21000   149.30816      296.85976     -2247.968       6.523263      -2241.4448     -13857.214    
     21050   158.74078      315.61403     -2248.3971      6.9353736     -2241.4617     -11440.547    
     21100   155.8348       309.83625     -2248.2896      6.8084113     -2241.4811     -15123.799    
     21150   148.42987      295.1135      -2247.985       6.4848903     -2241.5001     -16268.91     
     21200   149.61653      297.47287     -2248.0496      6.5367357     -2241.5129     -15205.947    
     21250   153.40634      305.0079      -2248.2403      6.7023122     -2241.538      -15505.606    
     21300   152.14768      302.50538     -2248.2051      6.6473212     -2241.5578     -15021.443    
     21350   160.0318       318.18088     -2248.5689      6.9917781     -2241.5771     -15421.395    
     21400   153.47306      305.14055     -2248.2966      6.7052271     -2241.5913     -13802.836    
     21450   158.26109      314.66028     -2248.5211      6.9144157     -2241.6067     -13481.308    
     21500   151.33711      300.89379     -2248.2451      6.6119078     -2241.6332     -13861.718    
     21550   148.81521      295.87966     -2248.1541      6.501726      -2241.6524     -15078.059    
     21600   142.46379      283.25153     -2247.891       6.2242329     -2241.6668     -14774.276    
     21650   150.812        299.84975     -2248.2747      6.5889657     -2241.6857     -13727.042    
     21700   154.94771      308.07251     -2248.4788      6.7696545     -2241.7091     -15338.246    
     21750   153.69199      305.57585     -2248.4452      6.7147923     -2241.7304     -15531.369    
     21800   152.19915      302.60772     -2248.3959      6.64957       -2241.7463     -10236.271    
     21850   149.78464      297.8071      -2248.3128      6.5440801     -2241.7687     -15347.292    
     21900   149.88672      298.01007     -2248.3398      6.5485402     -2241.7912     -16470.505    
     21950   147.0136       292.29764     -2248.2328      6.4230139     -2241.8097     -16389.038    
     22000   147.34728      292.96107     -2248.273       6.4375923     -2241.8354     -16183.547    
     22050   142.03493      282.39885     -2248.0606      6.2054959     -2241.8551     -14665.946    
     22100   147.04276      292.35561     -2248.2941      6.4242878     -2241.8698     -15381.943    
     22150   148.68786      295.62644     -2248.3844      6.4961619     -2241.8882     -14114.561    
     22200   151.73553      301.68594     -2248.5405      6.6293145     -2241.9112     -13601.263    
     22250   143.37184      285.05695     -2248.1955      6.2639055     -2241.9316     -14755.201    
     22300   145.24436      288.77996     -2248.2963      6.3457157     -2241.9505     -13842.868    
     22350   137.32211      273.02867     -2247.9627      5.9995933     -2241.9631     -11236.806    
     22400   150.0024       298.24007     -2248.5392      6.5535942     -2241.9856     -14637.621    
     22450   149.03162      296.30994     -2248.5083      6.5111811     -2241.9972     -14761.107    
     22500   143.98737      286.28078     -2248.3099      6.2907981     -2242.0191     -14649.83     
     22550   145.81688      289.91826     -2248.4026      6.370729      -2242.0318     -14760.614    
     22600   152.76765      303.73803     -2248.7215      6.6744077     -2242.0471     -13661.656    
     22650   143.3551       285.02367     -2248.3269      6.2631741     -2242.0637     -11321.863    
     22700   155.11579      308.40668     -2248.8534      6.7769977     -2242.0764     -14549.446    
     22750   150.70904      299.64504     -2248.6853      6.5844673     -2242.1008     -14508.379    
     22800   145.40334      289.09606     -2248.4639      6.3526617     -2242.1112     -15154.022    
     22850   136.20022      270.79808     -2248.0741      5.9505778     -2242.1235     -13684.687    
     22900   147.77747      293.81637     -2248.5865      6.456387      -2242.1301     -17920.74     
     22950   135.927        270.25485     -2248.0898      5.9386408     -2242.1512     -11185.903    
     23000   139.7418       277.83958     -2248.2668      6.1053093     -2242.1615     -15088.081    
     23050   140.8503       280.04353     -2248.3279      6.1537395     -2242.1741     -15638.642    
     23100   143.90739      286.12174     -2248.4772      6.2873035     -2242.1899     -14887.869    
     23150   145.09138      288.4758      -2248.5437      6.3390321     -2242.2047     -14034.81     
     23200   131.37753      261.20944     -2247.949       5.739875      -2242.2091     -15546.786    
     23250   147.27241      292.81219     -2248.6681      6.434321      -2242.2337     -16904.346    
     23300   137.63713      273.655       -2248.2541      6.0133565     -2242.2408     -14020.558    
     23350   133.97181      266.36749     -2248.1044      5.853219      -2242.2512     -16333.079    
     23400   147.57681      293.41743     -2248.7177      6.4476205     -2242.27       -15105.872    
     23450   140.80196      279.94743     -2248.4236      6.1516277     -2242.2719     -13483.899    
     23500   146.25542      290.79019     -2248.6719      6.389889      -2242.282      -14392.306    
     23550   136.79554      271.98173     -2248.2646      5.9765876     -2242.288      -12795.973    
     23600   134.81267      268.03931     -2248.1814      5.8899561     -2242.2915     -15085.944    
     23650   129.74232      257.95826     -2247.9718      5.6684327     -2242.3034     -15377.849    
     23700   132.29914      263.04182     -2248.0861      5.7801401     -2242.3059     -14071.004    
     23750   141.11738      280.57456     -2248.4744      6.1654084     -2242.309      -18112.185    
     23800   150.95661      300.13726     -2248.9125      6.5952836     -2242.3172     -15484.525    
     23850   163.4792       325.03511     -2249.4739      7.1423945     -2242.3315     -13433.188    
     23900   149.46846      297.17848     -2248.8613      6.5302666     -2242.3311     -16361.518    
     23950   146.74189      291.7574      -2248.7467      6.4111425     -2242.3355     -12737.357    
     24000   149.02155      296.28991     -2248.8512      6.5107411     -2242.3404     -14187.922    
     24050   152.12871      302.46767     -2248.9981      6.6464926     -2242.3516     -14812.367    
     24100   145.22315      288.73778     -2248.6977      6.3447889     -2242.3529     -16952.473    
     24150   146.47289      291.22256     -2248.7615      6.39939       -2242.3621     -12396.875    
     24200   142.62448      283.57102     -2248.5855      6.2312534     -2242.3543     -15013.88     
     24250   151.37469      300.9685      -2248.9773      6.6135495     -2242.3638     -13052.836    
     24300   147.55494      293.37394     -2248.8125      6.4466649     -2242.3658     -14201.257    
     24350   140.56873      279.48372     -2248.5129      6.141438      -2242.3714     -14605.697    
     24400   146.22548      290.73067     -2248.7652      6.3885811     -2242.3766     -16278.545    
     24450   130.10731      258.68394     -2248.0589      5.6843791     -2242.3745     -16600.297    
     24500   131.44806      261.34967     -2248.1134      5.7429563     -2242.3704     -13578.698    
     24550   136.67786      271.74775     -2248.3511      5.9714461     -2242.3797     -14823.651    
     24600   141.11808      280.57595     -2248.544       6.1654389     -2242.3785     -14835.354    
     24650   138.47788      275.32661     -2248.4294      6.0500887     -2242.3793     -15035.762    
     24700   148.35952      294.97363     -2248.8539      6.4818168     -2242.3721     -14755.691    
     24750   146.1916       290.66329     -2248.7633      6.3871005     -2242.3762     -12761.661    
     24800   144.80668      287.90975     -2248.6983      6.3265936     -2242.3717     -14995.515    
     24850   153.06379      304.32682     -2249.0648      6.687346      -2242.3774     -14017.177    
     24900   139.82491      278.00483     -2248.4885      6.1089405     -2242.3795     -17122.324    
     24950   139.86697      278.08845     -2248.4891      6.1107781     -2242.3783     -17265.298    
     25000   149.18441      296.61371     -2248.8922      6.5178563     -2242.3744     -15784.23     
     25050   140.94574      280.23329     -2248.5269      6.1579092     -2242.369      -17268.593    
     25100   142.43713      283.19853     -2248.5902      6.2230682     -2242.3672     -15736.903    
     25150   142.57708      283.47679     -2248.5922      6.2291826     -2242.363      -14023.132    
     25200   148.95079      296.14921     -2248.8732      6.5076493     -2242.3656     -14936.101    
     25250   143.33067      284.9751      -2248.6227      6.262107      -2242.3606     -14058.67     
     25300   142.10451      282.5372      -2248.5573      6.208536      -2242.3487     -16845.493    
     25350   140.0885       278.5289      -2248.4702      6.1204566     -2242.3498     -13730.987    
     25400   148.85687      295.96248     -2248.8435      6.503546      -2242.34       -15588.329    
     25450   140.79557      279.93471     -2248.4819      6.1513483     -2242.3305     -16996.244    
     25500   155.76533      309.69812     -2249.1476      6.8053761     -2242.3422     -13573.04     
     25550   135.66769      269.73929     -2248.2527      5.9273117     -2242.3254     -18403.109    
     25600   144.93953      288.17389     -2248.6576      6.3323978     -2242.3252     -17682.422    
     25650   151.87734      301.96788     -2248.9496      6.6355101     -2242.3141     -14901.59     
     25700   142.9755       284.26893     -2248.5505      6.2465894     -2242.3039     -17449.31     
     25750   141.04795      280.4365      -2248.4559      6.1623747     -2242.2935     -15138.356    
     25800   138.4804       275.33162     -2248.3348      6.050199      -2242.2846     -15916.187    
     25850   144.13832      286.58089     -2248.5766      6.297393      -2242.2792     -16889.331    
     25900   150.93809      300.10044     -2248.8631      6.5944746     -2242.2686     -16288.306    
     25950   147.79547      293.85216     -2248.7141      6.4571734     -2242.2569     -14467.599    
     26000   153.98452      306.15745     -2248.9729      6.7275727     -2242.2454     -13599.074    
     26050   144.74093      287.77902     -2248.5633      6.3237209     -2242.2396     -13837.265    
     26100   147.73866      293.73922     -2248.6867      6.4546917     -2242.232      -14072.876    
     26150   146.50754      291.29145     -2248.6287      6.4009038     -2242.2278     -13643.491    
     26200   147.39865      293.0632      -2248.6544      6.4398365     -2242.2146     -15344.925    
     26250   148.50143      295.25579     -2248.6956      6.4880171     -2242.2076     -14623.782    
     26300   138.47881      275.32845     -2248.245       6.0501292     -2242.1949     -14378.972    
     26350   147.62016      293.50361     -2248.6385      6.4495142     -2242.189      -8446.5841    
     26400   139.90016      278.15444     -2248.2847      6.1122281     -2242.1725     -14580.601    
     26450   144.48428      287.26875     -2248.4763      6.312508      -2242.1638     -15794.784    
     26500   139.3254       277.01168     -2248.2367      6.087117      -2242.1496     -18594.873    
     26550   141.81035      281.95235     -2248.3456      6.1956842     -2242.1499     -14040.36     
     26600   139.58946      277.53669     -2248.2293      6.0986536     -2242.1306     -13866.136    
     26650   134.69451      267.80437     -2248.0021      5.8847935     -2242.1173     -17523.112    
     26700   151.93517      302.08287     -2248.7483      6.6380367     -2242.1102     -16260.968    
     26750   136.33293      271.06194     -2248.0454      5.9563759     -2242.089      -19764.485    
     26800   152.10506      302.42066     -2248.7258      6.6454595     -2242.0804     -16272.549    
     26850   137.43944      273.26195     -2248.0662      6.0047194     -2242.0614     -18025.051    
     26900   147.5814       293.42656     -2248.497       6.447821      -2242.0492     -15874.12     
     26950   146.36027      290.99866     -2248.4328      6.3944699     -2242.0383     -15120.724    
     27000   140.05377      278.45985     -2248.135       6.1189392     -2242.0161     -17491.142    
     27050   148.40499      295.06404     -2248.4861      6.4838036     -2242.0023     -18243.201    
     27100   145.79562      289.876       -2248.3593      6.3698004     -2241.9895     -20982.364    
     27150   154.91012      307.99777     -2248.7474      6.7680122     -2241.9794     -17584.102    
     27200   153.68416      305.56028     -2248.6732      6.7144502     -2241.9587     -20515.181    
     27250   151.83567      301.88504     -2248.5867      6.6336896     -2241.953      -18555.17     
     27300   148.06222      294.38253     -2248.3968      6.4688279     -2241.9279     -19362.737    
     27350   150.1945       298.62201     -2248.4795      6.5619872     -2241.9176     -19941.437    
     27400   151.53556      301.28834     -2248.5334      6.6205777     -2241.9128     -17295.422    
     27450   157.01497      312.1827      -2248.7512      6.8599728     -2241.8913     -20406.089    
     27500   169.07598      336.16283     -2249.2731      7.3869175     -2241.8862     -15240.206    
     27550   155.44017      309.05163     -2248.6609      6.79117       -2241.8698     -16675.156    
     27600   164.9373       327.93416     -2249.0562      7.2060989     -2241.8501     -16318.001    
     27650   160.36604      318.84542     -2248.8408      7.0063809     -2241.8344     -18834.879    
     27700   162.64067      323.36791     -2248.9259      7.1057592     -2241.8202     -18194.061    
     27750   158.40867      314.95372     -2248.7258      6.9208637     -2241.8049     -17514.045    
     27800   165.87012      329.78882     -2249.0444      7.2468537     -2241.7976     -15645.1      
     27850   166.46158      330.96479     -2249.0546      7.2726947     -2241.7819     -14422.878    
     27900   166.86143      331.75978     -2249.0613      7.2901639     -2241.7711     -15160.845    
     27950   164.65928      327.3814      -2248.9516      7.1939524     -2241.7577     -15468.626    
     28000   158.1043       314.34855     -2248.667       6.9075657     -2241.7595     -16536.619    
     28050   171.58062      341.14265     -2249.2427      7.4963452     -2241.7463     -16082.429    
     28100   162.33765      322.76546     -2248.8294      7.0925206     -2241.7369     -19821.097    
     28150   171.39575      340.77507     -2249.2255      7.488268      -2241.7373     -18043.817    
     28200   159.74398      317.60862     -2248.7194      6.9792033     -2241.7402     -15169.094    
     28250   150.3707       298.97233     -2248.2863      6.5696852     -2241.7166     -19452.165    
     28300   162.26986      322.63065     -2248.8016      7.0895585     -2241.712      -17573.453    
     28350   151.1309       300.48379     -2248.3093      6.6028982     -2241.7064     -18946.066    
     28400   171.53985      341.06159     -2249.1986      7.4945641     -2241.704      -18817.667    
     28450   167.0832       332.20071     -2248.9976      7.2998531     -2241.6978     -18351.207    
     28500   172.49127      342.95323     -2249.2348      7.5361313     -2241.6987     -18871.764    
     28550   160.50646      319.1246      -2248.6992      7.0125157     -2241.6866     -16698.406    
     28600   184.21657      366.26589     -2249.7433      8.048409      -2241.6949     -15605.775    
     28650   192.0185       381.77796     -2250.0682      8.3892747     -2241.6789     -18603.23     
     28700   181.08081      360.03126     -2249.602       7.9114078     -2241.6906     -16385.672    
     28750   194.23557      386.18602     -2250.1878      8.4861383     -2241.7017     -17548.303    
     28800   177.24243      352.39965     -2249.4442      7.743709      -2241.7005     -17420.647    
     28850   178.28043      354.46344     -2249.5026      7.7890593     -2241.7135     -18425.198    
     28900   190.7607       379.27716     -2250.0719      8.3343216     -2241.7376     -19038.37     
     28950   189.89297      377.55191     -2250.055       8.2964106     -2241.7586     -16393.091    
     29000   183.57101      364.98235     -2249.7963      8.0202042     -2241.7761     -19584.675    
     29050   174.56468      347.07567     -2249.4251      7.6267187     -2241.7984     -19849.673    
     29100   185.11115      368.04451     -2249.9205      8.0874928     -2241.833      -24490.393    
     29150   172.82505      343.61687     -2249.4008      7.5507143     -2241.8501     -23204.732    
     29200   171.63802      341.25676     -2249.3746      7.4988527     -2241.8757     -20797.723    
     29250   165.56651      329.18518     -2249.1355      7.2335891     -2241.9019     -20054.653    
     29300   173.00236      343.96939     -2249.4902      7.5584607     -2241.9317     -19705.306    
     29350   163.9205       325.91253     -2249.1289      7.1616752     -2241.9673     -18958.731    
     29400   165.10586      328.2693      -2249.205       7.2134633     -2241.9916     -23744.739    
     29450   164.47923      327.02341     -2249.2126      7.1860859     -2242.0265     -22720.911    
     29500   171.6373       341.25534     -2249.5649      7.4988215     -2242.0661     -19384.926    
     29550   156.09279      310.3492      -2248.9135      6.819683      -2242.0938     -21364.954    
     29600   174.2697       346.48917     -2249.7472      7.6138309     -2242.1333     -23204.476    
     29650   161.95152      321.99772     -2249.2404      7.0756503     -2242.1647     -20605.943    
     29700   176.19856      350.32419     -2249.9068      7.6981024     -2242.2087     -20659.917    
     29750   163.16716      324.41471     -2249.3729      7.1287616     -2242.2442     -23965.992    
     29800   171.50867      340.9996      -2249.7851      7.4932018     -2242.2919     -19892.999    
     29850   176.06278      350.05424     -2250.0162      7.6921705     -2242.3241     -22028.516    
     29900   189.68018      377.12882     -2250.646       8.2871135     -2242.3588     -19901.666    
     29950   186.46032      370.72699     -2250.5491      8.1464382     -2242.4027     -20218.625    
     30000   175.58089      349.09611     -2250.1117      7.6711164     -2242.4406     -16547.755    
     30050   191.12685      380.00515     -2250.8409      8.3503186     -2242.4905     -23410.451    
     30100   182.60329      363.0583      -2250.5173      7.9779246     -2242.5394     -20945.394    
     30150   186.36169      370.53088     -2250.7309      8.1421289     -2242.5887     -17237.08     
     30200   182.29175      362.43889     -2250.6078      7.9643136     -2242.6435     -19371.966    
     30250   169.44308      336.8927      -2250.0995      7.4029559     -2242.6965     -20599.907    
     30300   173.15225      344.26741     -2250.3037      7.5650095     -2242.7387     -20798.285    
     30350   178.25606      354.41499     -2250.5699      7.7879947     -2242.7819     -19474.922    
     30400   189.30591      376.3847      -2251.1064      8.2707619     -2242.8356     -17747.406    
     30450   171.27998      340.5449      -2250.3502      7.4832102     -2242.867      -15927.891    
     30500   186.36471      370.53689     -2251.0551      8.1422608     -2242.9129     -17435.785    
     30550   187.58441      372.96194     -2251.1579      8.1955494     -2242.9624     -17563.805    
     30600   181.97985      361.81876     -2250.9533      7.9506867     -2243.0026     -20336.116    
     30650   179.68522      357.25651     -2250.8993      7.8504347     -2243.0489     -22000.684    
     30700   186.07625      369.96336     -2251.2181      8.129658      -2243.0885     -17466.821    
     30750   177.69418      353.29785     -2250.8943      7.7634463     -2243.1308     -17787.932    
     30800   178.04731      353.99995     -2250.9514      7.7788744     -2243.1726     -17024.972    
     30850   177.88228      353.67183     -2250.9884      7.7716643     -2243.2167     -17214.365    
     30900   172.13579      342.24645     -2250.7759      7.5206005     -2243.2553     -15523.957    
     30950   169.30707      336.62229     -2250.6851      7.3970138     -2243.2881     -14229.826    
     31000   182.19332      362.24319     -2251.277       7.9600131     -2243.317      -23788.846    
     31050   180.45588      358.78875     -2251.2435      7.8841046     -2243.3594     -19974.778    
     31100   164.27871      326.62474     -2250.5703      7.1773253     -2243.393      -20602.191    
     31150   187.46607      372.72666     -2251.6264      8.1903794     -2243.436      -17469.822    
     31200   182.80033      363.45006     -2251.4604      7.9865333     -2243.4738     -22935.564    
     31250   153.55361      305.3007      -2250.214       6.7087462     -2243.5052     -21499.765    
     31300   170.80889      339.60827     -2250.9931      7.4626284     -2243.5305     -19333.631    
     31350   184.60416      367.0365      -2251.6402      8.0653424     -2243.5748     -15993.851    
     31400   159.39447      316.9137      -2250.5524      6.9639329     -2243.5884     -22033.397    
     31450   190.16429      378.09134     -2251.9462      8.3082641     -2243.6379     -19257.439    
     31500   169.59114      337.18708     -2251.0709      7.4094247     -2243.6615     -23713.935    
     31550   183.13174      364.109       -2251.6985      8.0010129     -2243.6975     -20310.488    
     31600   177.43754      352.78757     -2251.486       7.7522333     -2243.7338     -14469.705    
     31650   174.58784      347.12171     -2251.3909      7.6277305     -2243.7631     -17430.552    
     31700   177.66113      353.23212     -2251.5638      7.762002      -2243.8018     -19628.332    
     31750   176.78819      351.49651     -2251.5604      7.7238633     -2243.8365     -19564.399    
     31800   162.24483      322.5809      -2250.9526      7.0884651     -2243.8641     -16796.219    
     31850   165.05208      328.16238     -2251.1109      7.2111139     -2243.8998     -24091.742    
     31900   171.503        340.98831     -2251.4294      7.4929538     -2243.9364     -21950.224    
     31950   166.59726      331.23455     -2251.2466      7.2786224     -2243.9679     -21997.907    
     32000   172.2039       342.38187     -2251.5337      7.5235761     -2244.0101     -20241.615    
     32050   169.14548      336.30102     -2251.432       7.3899542     -2244.0421     -19904.581    
     32100   172.48589      342.94253     -2251.6088      7.5358961     -2244.0729     -23997.291    
     32150   168.50941      335.03637     -2251.4726      7.3621644     -2244.1105     -20301.523    
     32200   169.66496      337.33387     -2251.558       7.4126503     -2244.1453     -19522.758    
     32250   162.26497      322.62095     -2251.2662      7.0893451     -2244.1769     -20417.985    
     32300   156.48728      311.13353     -2251.0447      6.836918      -2244.2078     -16815.924    
     32350   171.5873       341.15593     -2251.7367      7.496637      -2244.2401     -20582.056    
     32400   162.20718      322.50604     -2251.3624      7.0868201     -2244.2756     -19958.577    
     32450   175.21226      348.3632      -2251.9681      7.6550113     -2244.3131     -18896.005    
     32500   177.39711      352.7072      -2252.0967      7.7504673     -2244.3462     -19040.598    
     32550   179.13098      356.15453     -2252.2103      7.8262197     -2244.3841     -19327.029    
     32600   159.96598      318.05001     -2251.4092      6.9889023     -2244.4203     -21979.548    
     32650   162.17078      322.43366     -2251.5473      7.0852297     -2244.4621     -19650.116    
     32700   164.22302      326.514       -2251.6731      7.174892      -2244.4982     -17114.913    
     32750   162.80572      323.69607     -2251.6498      7.1129702     -2244.5369     -25128.3      
     32800   166.49394      331.02913     -2251.8485      7.2741084     -2244.5744     -21635.836    
     32850   171.59044      341.16216     -2252.1129      7.496774      -2244.6162     -22817.502    
[...]
    192000   162.71674      323.51917     -2258.7355      7.1090829     -2251.6264     -21276.379    
    192050   144.31758      286.9373      -2257.9329      6.3052247     -2251.6277     -22472.284    
    192100   138.59084      275.5512      -2257.6848      6.055024      -2251.6297     -22744.357    
    192150   143.48465      285.28124     -2257.9169      6.2688341     -2251.6481     -21750.679    
    192200   144.81325      287.9228      -2257.9857      6.3268804     -2251.6588     -22032.583    
    192250   142.80294      283.92584     -2257.9112      6.2390501     -2251.6721     -22582.271    
    192300   155.96594      310.09698     -2258.5031      6.8141406     -2251.689      -24406.65     
    192350   150.82674      299.87905     -2258.289       6.5896096     -2251.6994     -22623.538    
    192400   139.36786      277.0961      -2257.7966      6.088972      -2251.7076     -23687.604    
    192450   139.37788      277.11602     -2257.8116      6.0894096     -2251.7222     -24015.515    
    192500   144.30777      286.91779     -2258.0336      6.304796      -2251.7288     -26032.159    
    192550   142.38869      283.10222     -2257.9714      6.2209518     -2251.7505     -25834.146    
    192600   149.02465      296.29608     -2258.2698      6.5108766     -2251.7589     -25446.99     
    192650   150.49393      299.21733     -2258.3548      6.5750689     -2251.7797     -25286.254    
    192700   145.05718      288.40781     -2258.1334      6.337538      -2251.7958     -26769.376    
    192750   139.27437      276.91021     -2257.8996      6.0848872     -2251.8147     -25008.935    
    192800   139.86016      278.07491     -2257.9443      6.1104805     -2251.8338     -23462.168    
    192850   140.45745      279.26245     -2257.9869      6.1365759     -2251.8503     -22630.435    
    192900   143.52346      285.35841     -2258.1349      6.2705298     -2251.8644     -20967.925    
    192950   144.25842      286.81969     -2258.1862      6.3026402     -2251.8835     -22391.825    
    193000   141.592        281.51821     -2258.0915      6.1861445     -2251.9053     -20365.401    
    193050   147.86648      293.99336     -2258.3931      6.460276      -2251.9328     -25526.786    
    193100   149.74401      297.72632     -2258.4977      6.5423051     -2251.9554     -27464.17     
    193150   139.89138      278.13698     -2258.0835      6.1118444     -2251.9717     -21822.317    
    193200   135.32958      269.06704     -2257.9062      5.9125396     -2251.9937     -21922.505    
    193250   150.77724      299.78062     -2258.6029      6.5874468     -2252.0155     -23012.489    
    193300   139.98558      278.32427     -2258.1545      6.11596       -2252.0385     -21328.102    
    193350   141.01748      280.37593     -2258.2226      6.1610437     -2252.0615     -23697.838    
    193400   138.44733      275.26587     -2258.1305      6.0487541     -2252.0818     -19845.61     
    193450   138.5619       275.49365     -2258.1601      6.0537594     -2252.1063     -22181.267    
    193500   146.59865      291.47261     -2258.5414      6.4048846     -2252.1365     -25528.868    
    193550   148.28525      294.82597     -2258.6363      6.4785721     -2252.1577     -24680.25     
    193600   150.57996      299.3884      -2258.762       6.5788279     -2252.1832     -23057.893    
    193650   140.86558      280.07392     -2258.3575      6.1544072     -2252.2031     -25770.572    
    193700   127.58399      253.667       -2257.8031      5.5741355     -2252.2289     -23940.709    
    193750   142.74144      283.80357     -2258.4916      6.2363635     -2252.2552     -23554.282    
    193800   138.44235      275.25597     -2258.3252      6.0485366     -2252.2767     -26457.474    
    193850   135.41169      269.2303      -2258.2184      5.9161272     -2252.3022     -25273.141    
    193900   137.0983       272.58368     -2258.3139      5.9898151     -2252.3241     -27395        
    193950   136.11208      270.62284     -2258.2937      5.9467271     -2252.347      -26285.74     
    194000   133.47527      265.38024     -2258.1982      5.831525      -2252.3666     -27076.687    
    194050   127.6205       253.73959     -2257.9578      5.5757308     -2252.382      -25765.059    
    194100   138.35497      275.08224     -2258.4488      6.0447189     -2252.4041     -26529.211    
    194150   154.00288      306.19396     -2259.1615      6.7283749     -2252.4331     -22938.439    
    194200   131.33548      261.12583     -2258.1796      5.7380377     -2252.4416     -23232.542    
    194250   142.8711       284.06137     -2258.7067      6.2420283     -2252.4646     -25630.811    
    194300   151.15185      300.52545     -2259.0883      6.6038137     -2252.4845     -24220.071    
    194350   145.99281      290.26806     -2258.879       6.3784155     -2252.5005     -21221.429    
    194400   140.31718      278.98357     -2258.6533      6.1304476     -2252.5228     -22663.95     
    194450   134.61425      267.6448      -2258.4172      5.881287      -2252.536      -21274.104    
    194500   145.21043      288.7125      -2258.9004      6.3442333     -2252.5561     -24110.641    
    194550   134.48222      267.38229     -2258.4385      5.8755185     -2252.563      -25357.93     
    194600   134.99045      268.39278     -2258.4763      5.8977233     -2252.5785     -20805.734    
    194650   136.98232      272.35309     -2258.5742      5.9847479     -2252.5894     -25119.339    
    194700   137.69594      273.77193     -2258.614       6.0159259     -2252.5981     -23461.337    
    194750   143.68443      285.67846     -2258.8966      6.2775627     -2252.619      -21194.188    
    194800   137.29957      272.98385     -2258.6297      5.9986083     -2252.631      -27163.509    
    194850   135.52297      269.45156     -2258.5666      5.9209891     -2252.6456     -23026.563    
    194900   118.55343      235.71211     -2257.8225      5.1795908     -2252.6429     -26195.149    
    194950   137.14684      272.68019     -2258.645       5.9919358     -2252.653      -20553.607    
    195000   133.97729      266.37837     -2258.5081      5.8534582     -2252.6546     -22174.062    
    195050   136.93363      272.25628     -2258.6525      5.9826206     -2252.6699     -22514.523    
    195100   134.31234      267.04454     -2258.5434      5.8680966     -2252.6753     -23203.164    
    195150   143.24433      284.80344     -2258.9369      6.2583347     -2252.6786     -23389.295    
    195200   144.65224      287.60268     -2259.0011      6.3198459     -2252.6812     -22408.273    
    195250   139.54899      277.45623     -2258.7896      6.0968855     -2252.6927     -22108.269    
    195300   140.09918      278.55014     -2258.816       6.1209233     -2252.6951     -22126.847    
    195350   139.64442      277.64597     -2258.7898      6.101055      -2252.6887     -25417.22     
    195400   134.01278      266.44894     -2258.5551      5.8550088     -2252.7001     -23025.725    
    195450   128.19919      254.89016     -2258.3012      5.6010136     -2252.7002     -21122.232    
    195500   141.73342      281.7994      -2258.9011      6.1923232     -2252.7087     -27887.083    
    195550   141.59268      281.51957     -2258.8873      6.1861743     -2252.7011     -27660.068    
    195600   125.51762      249.55856     -2258.1839      5.4838559     -2252.7        -23655.206    
    195650   134.26892      266.9582      -2258.5618      5.8661994     -2252.6956     -27668.99     
    195700   136.81757      272.02553     -2258.6733      5.97755       -2252.6957     -25349.301    
    195750   133.80741      266.04061     -2258.5378      5.8460362     -2252.6918     -22925.827    
    195800   131.26059      260.97695     -2258.4181      5.734766      -2252.6833     -25732.282    
    195850   121.88711      242.34025     -2257.9989      5.325239      -2252.6736     -23236.632    
    195900   135.23653      268.88204     -2258.5841      5.9084743     -2252.6757     -23842.876    
    195950   130.37514      259.21645     -2258.3653      5.6960804     -2252.6693     -22004.037    
    196000   138.35705      275.08637     -2258.7093      6.0448098     -2252.6645     -26167.189    
    196050   126.97368      252.45355     -2258.1975      5.547471      -2252.65       -23207.99     
    196100   142.24271      282.81197     -2258.8631      6.2145738     -2252.6486     -20115.579    
    196150   133.21637      264.86548     -2258.4502      5.8202137     -2252.63       -23302.016    
    196200   140.43221      279.21227     -2258.7592      6.1354731     -2252.6237     -22428.808    
    196250   136.95411      272.29699     -2258.5924      5.9835152     -2252.6089     -22469.181    
    196300   130.17392      258.81638     -2258.2777      5.6872892     -2252.5905     -26370.577    
    196350   127.1214       252.74726     -2258.1383      5.553925      -2252.5844     -26157.411    
    196400   128.6326       255.75188     -2258.189       5.6199492     -2252.569      -21207.059    
    196450   133.41573      265.26186     -2258.3803      5.8289236     -2252.5514     -23019.362    
    196500   144.30713      286.91652     -2258.8399      6.3047681     -2252.5351     -23371.749    
    196550   138.42395      275.21938     -2258.5677      6.0477324     -2252.52       -24326.516    
    196600   141.28611      280.91003     -2258.6744      6.1727801     -2252.5016     -27438.013    
    196650   130.93312      260.32585     -2258.1972      5.7204587     -2252.4767     -20792.84     
    196700   121.30434      241.18158     -2257.7489      5.2997781     -2252.4492     -24236.525    
    196750   143.4252       285.16304     -2258.7095      6.2662368     -2252.4432     -23876.937    
    196800   137.72514      273.82998     -2258.4348      6.0172014     -2252.4176     -26921.863    
    196850   148.51808      295.28888     -2258.8823      6.4887442     -2252.3935     -22981.401    
    196900   146.46256      291.20204     -2258.7642      6.398939      -2252.3652     -19164.58     
    196950   131.84888      262.14659     -2258.0958      5.7604681     -2252.3354     -22677.91     
    197000   136.06953      270.53824     -2258.257       5.944868      -2252.3122     -24244.182    
    197050   138.52432      275.41894     -2258.337       6.0521177     -2252.2849     -23799.777    
    197100   135.39726      269.20162     -2258.1755      5.9154968     -2252.26       -24524.765    
    197150   147.4839       293.23269     -2258.6816      6.443561      -2252.2381     -21907.587    
    197200   136.12836      270.65522     -2258.1535      5.9474385     -2252.2061     -23428.818    
    197250   140.33746      279.02389     -2258.3217      6.1313336     -2252.1904     -22367.946    
    197300   152.61135      303.42728     -2258.8319      6.6675791     -2252.1644     -20997.846    
    197350   137.2815       272.94792     -2258.1274      5.9978188     -2252.1296     -24016.503    
    197400   147.06452      292.39888     -2258.5216      6.4252386     -2252.0963     -23692.61     
    197450   143.52708      285.3656      -2258.3437      6.2706879     -2252.073      -22302.165    
    197500   145.4249       289.13892     -2258.3951      6.3536037     -2252.0415     -26005.024    
    197550   153.1192       304.437       -2258.7026      6.689767      -2252.0129     -24334.544    
    197600   138.65484      275.67844     -2258.0405      6.05782       -2251.9827     -25332.291    
    197650   141.67247      281.67821     -2258.1494      6.1896603     -2251.9598     -20179.52     
    197700   150.06803      298.37055     -2258.4848      6.5564614     -2251.9284     -25148.679    
    197750   143.76124      285.83116     -2258.1844      6.2809182     -2251.9035     -19061.227    
    197800   148.34652      294.94778     -2258.3596      6.4812488     -2251.8784     -21229.874    
    197850   146.70816      291.69033     -2258.2598      6.4096689     -2251.8502     -26727.704    
    197900   137.23566      272.85678     -2257.8221      5.9958163     -2251.8263     -22920.613    
    197950   141.75677      281.8458      -2257.995       6.193343      -2251.8016     -26048.34     
    198000   147.56173      293.38745     -2258.2238      6.4469617     -2251.7768     -24066.486    
    198050   143.38578      285.08466     -2258.0234      6.2645144     -2251.7589     -21657.233    
    198100   126.81211      252.13232     -2257.271       5.5404122     -2251.7306     -27198.676    
    198150   143.28035      284.87506     -2257.97        6.2599085     -2251.7101     -23233.665    
    198200   148.12703      294.51139     -2258.1663      6.4716595     -2251.6947     -26141.04     
    198250   138.72529      275.81852     -2257.7349      6.0608981     -2251.674      -25932.386    
    198300   137.46447      273.31171     -2257.6526      6.0058129     -2251.6468     -26325.793    
    198350   144.09789      286.50052     -2257.9279      6.2956267     -2251.6323     -24465.587    
    198400   145.01908      288.33204     -2257.9419      6.3358731     -2251.6061     -21373.011    
    198450   154.58315      307.34768     -2258.3374      6.753727      -2251.5836     -23426.08     
    198500   148.67037      295.59168     -2258.0672      6.4953979     -2251.5718     -23384.244    
    198550   147.43367      293.13283     -2257.999       6.4413666     -2251.5576     -23026.03     
    198600   158.52179      315.17863     -2258.4581      6.9258059     -2251.5323     -21194.739    
    198650   143.07714      284.47101     -2257.7716      6.25103       -2251.5206     -23965.085    
    198700   139.72335      277.80289     -2257.6027      6.1045032     -2251.4982     -22306.827    
    198750   139.0889       276.54146     -2257.5655      6.0767841     -2251.4887     -23506.347    
    198800   148.12388      294.50513     -2257.9485      6.4715219     -2251.477      -25264.48     
    198850   149.81947      297.87636     -2258.0069      6.545602      -2251.4613     -27134.149    
    198900   148.97841      296.20414     -2257.9547      6.5088563     -2251.4459     -27037.382    
    198950   141.39592      281.12835     -2257.6107      6.1775775     -2251.4332     -23912.783    
    199000   158.31353      314.76455     -2258.3445      6.916707      -2251.4278     -30712.867    
    199050   166.00035      330.04776     -2258.6615      7.2525437     -2251.4089     -24725.84     
    199100   151.74505      301.70487     -2258.0182      6.6297305     -2251.3885     -22395.912    
    199150   159.22202      316.57084     -2258.3312      6.9563988     -2251.3748     -21295.724    
    199200   153.06421      304.32766     -2258.0576      6.6873645     -2251.3703     -26482.552    
    199250   150.39564      299.02192     -2257.923       6.5707749     -2251.3522     -23174.96     
    199300   137.05819      272.50394     -2257.3232      5.9880627     -2251.3351     -25898.262    
    199350   158.97085      316.07146     -2258.2882      6.9454254     -2251.3428     -20585.035    
    199400   143.6339       285.57799     -2257.5982      6.275355      -2251.3228     -24166.707    
    199450   150.95696      300.13796     -2257.906       6.5952989     -2251.3107     -22765.062    
    199500   143.01141      284.34034     -2257.5509      6.2481585     -2251.3027     -25336.542    
    199550   147.43524      293.13595     -2257.7398      6.4414352     -2251.2983     -22246.026    
    199600   139.61307      277.58364     -2257.3918      6.0996853     -2251.2921     -26187.692    
    199650   136.95113      272.29106     -2257.2651      5.983385      -2251.2818     -25230.96     
    199700   141.96036      282.25061     -2257.477       6.2022382     -2251.2748     -23014.828    
    199750   139.24146      276.84479     -2257.347       6.0834496     -2251.2636     -22780.024    
    199800   156.66935      311.49553     -2258.1016      6.8448728     -2251.2567     -24160.339    
    199850   156.67611      311.50897     -2258.0998      6.8451681     -2251.2546     -23177.617    
    199900   137.47337      273.32941     -2257.2452      6.006202      -2251.239      -25977.182    
    199950   146.58347      291.44243     -2257.6367      6.4042214     -2251.2325     -20192.266    
    200000   149.11043      296.46662     -2257.7387      6.514624      -2251.2241     -22152.054    
colvars: Saving collective variables state to "out.colvars.state".
colvars:   Writing TI PMF to file "out.metadynamics1.ti.pmf".
Loop time of 989.264 on 4 procs for 200000 steps with 339 atoms

Performance: 8.734 ns/day, 2.748 hours/ns, 202.170 timesteps/s, 68.536 katom-step/s
136.1% CPU use with 4 MPI tasks x 1 OpenMP threads

MPI task timing breakdown:
Section |  min time  |  avg time  |  max time  |%varavg| %total
---------------------------------------------------------------
Pair    | 630.51     | 836.67     | 950.54     | 449.1 | 84.58
Neigh   | 0.063225   | 1.0916     | 2.0724     |  69.3 |  0.11
Comm    | 17.392     | 85.166     | 166.58     | 719.6 |  8.61
Output  | 4.9047     | 5.6999     | 6.6119     |  32.7 |  0.58
Modify  | 11.638     | 58.21      | 183.99     | 954.7 |  5.88
Other   |            | 2.425      |            |       |  0.25

Nlocal:          84.75 ave         141 max           3 min
Histogram: 1 0 0 0 0 0 2 0 0 1
Nghost:           1157 ave        1670 max         560 min
Histogram: 1 0 0 0 0 1 1 0 0 1
Neighs:              0 ave           0 max           0 min
Histogram: 4 0 0 0 0 0 0 0 0 0
FullNghs:        15994 ave       31876 max         271 min
Histogram: 1 0 0 0 1 1 0 0 0 1

Total # of neighbors = 63976
Ave neighs/atom = 188.71976
Neighbor list builds = 1866
Dangerous builds = 1
write_data final.data
System init for write_data ...
Generated 0 of 6 mixed pair_coeff terms from geometric mixing rule

CITE-CITE-CITE-CITE-CITE-CITE-CITE-CITE-CITE-CITE-CITE-CITE-CITE

Your simulation uses code contributions which should be cited:

- Colvars module (Fiorin2013, plus other works listed for specific features)


% Colvars module:
% Colvars-LAMMPS interface:
% Metadynamics colvar bias implementation:
% Optimal rotation via flexible fitting:
% distance colvar component:

@article{Fiorin2013,
  author = {Fiorin, Giacomo and Klein, Michael L.{} and H\'enin, J\'er\^ome},
  title = {Using collective variables to drive molecular dynamics simulations},
  journal = {Mol. Phys.},
  year = {2013},
  volume = {111},
  number = {22-23},
  pages = {3345--3362},
  publisher = {Taylor & Francis},
  doi = {10.1080/00268976.2013.813594},
  url = {https://doi.org/10.1080/00268976.2013.813594}
}


% Internal-forces free energy estimator:

@article{Henin2010,
  author = {H\'enin, J\'er\^ome and Fiorin, Giacomo and Chipot, Christophe and Klein, Michael L.},
  title = {Exploring multidimensional free energy landscapes using time-dependent biases on collective variables},
  journal = {J. Chem. Theory Comput.},
  year = {2010},
  volume = {6},
  pages = {35-47},
  number = {1},
  doi = {10.1021/ct9004432},
  pmid = {26614317},
  url = {https://doi.org/10.1021/ct9004432}
}


% LAMMPS engine:

@article{Thompson2022,
  title = {{LAMMPS} - a flexible simulation tool for particle-based materials modeling at the atomic, meso, and continuum scales},
  author = {Thompson, Aidan P. and Aktulga, H. Metin and Berger, Richard and Bolintineanu, Dan S. and Brown, W. Michael and Crozier, Paul S. and {in't Veld}, Pieter J. and Kohlmeyer, Axel and Moore, Stan G. and Nguyen, Trung Dac and Shan, Ray and Stevens, Mark J. and Tranchida, Julien and Trott, Christian and Plimpton, Steven J.},
  journal = {Comp. Phys. Comm.},
  volume = {271},
  pages = {108171},
  year = {2022},
  doi = {10.1016/j.cpc.2021.108171},
  url = {https://doi.org/10.1016/j.cpc.2021.108171}
}

CITE-CITE-CITE-CITE-CITE-CITE-CITE-CITE-CITE-CITE-CITE-CITE-CITE

Total wall time: 0:16:51
