LAMMPS (2 Aug 2023)
OMP_NUM_THREADS environment is not set. Defaulting to 1 thread. (src/comm.cpp:98)
  using 1 OpenMP thread(s) per MPI task
Loaded 1 plugins from /work/home/baoergen22b/apprepo/deepmd/v2.2.9-dtk23.10/app/lib/deepmd_lmp
Reading data file ...
  orthogonal box = (0 0 0) to (11.328 12.015 32)
  1 by 1 by 4 MPI processor grid
  reading atoms ...
  338 atoms
  read_data CPU = 0.029 seconds
Summary of lammps deepmd module ...
  >>> Info of deepmd-kit:
  installed to:       /work/home/wys974137909/shangcheng/deepmd-kit/20240715/deepmd-kit_v2.2.9/install
  source:             v2.2.9
  source branch:      HEAD
  source commit:      be43748
  source commit at:   2024-02-04 13:44:12 +0800
  support model ver.: 1.1 
  build variant:      rocm
  build with tf inc:  /work/home/wys974137909/shangcheng/miniconda3/envs/deepmd-kit-v2.2.9/lib/python3.8/site-packages/tensorflow/include;/work/home/wys974137909/shangcheng/miniconda3/envs/deepmd-kit-v2.2.9/lib/python3.8/site-packages/tensorflow/include
  build with tf lib:  /work/home/wys974137909/shangcheng/miniconda3/envs/deepmd-kit-v2.2.9/lib/python3.8/site-packages/tensorflow/lib/libtensorflow_cc.so
  set tf intra_op_parallelism_threads: 0
  set tf inter_op_parallelism_threads: 0
  >>> Info of lammps module:
  use deepmd-kit at:  /work/home/wys974137909/shangcheng/deepmd-kit/20240715/deepmd-kit_v2.2.9/install
  source:             v2.2.9
  source branch:      HEAD
  source commit:      be43748
  source commit at:   2024-02-04 13:44:12 +0800
  build float prec:   double
  build with tf inc:  /work/home/wys974137909/shangcheng/miniconda3/envs/deepmd-kit-v2.2.9/lib/python3.8/site-packages/tensorflow/include;/work/home/wys974137909/shangcheng/miniconda3/envs/deepmd-kit-v2.2.9/lib/python3.8/site-packages/tensorflow/include
  build with tf lib:  /work/home/wys974137909/shangcheng/miniconda3/envs/deepmd-kit-v2.2.9/lib/python3.8/site-packages/tensorflow/lib/libtensorflow_cc.so
INVALID_ARGUMENT: Tensor spin_attr/ntypes_spin:0, specified in either feed_devices or fetch_devices was not found in the Graph
INVALID_ARGUMENT: Tensor spin_attr/ntypes_spin:0, specified in either feed_devices or fetch_devices was not found in the Graph
INVALID_ARGUMENT: Tensor spin_attr/ntypes_spin:0, specified in either feed_devices or fetch_devices was not found in the Graph
INVALID_ARGUMENT: Tensor spin_attr/ntypes_spin:0, specified in either feed_devices or fetch_devices was not found in the Graph
  >>> Info of model(s):
  using   1 model(s): graph-compress.pb 
  rcut in model:      6
  ntypes in model:    4
168 atoms in group fixed
170 atoms in group mobile

CITE-CITE-CITE-CITE-CITE-CITE-CITE-CITE-CITE-CITE-CITE-CITE-CITE

Your simulation uses code contributions which should be cited:
- GPU package (short-range, long-range and three-body potentials): doi:10.1016/j.cpc.2010.12.021, doi:10.1016/j.cpc.2011.10.012, doi:10.1016/j.cpc.2013.08.002, doi:10.1016/j.commatsci.2014.10.068, doi:10.1016/j.cpc.2016.10.020, doi:10.3233/APC200086
- USER-DEEPMD package:
The log file lists these citations in BibTeX format.

CITE-CITE-CITE-CITE-CITE-CITE-CITE-CITE-CITE-CITE-CITE-CITE-CITE

Generated 0 of 6 mixed pair_coeff terms from geometric mixing rule
Neighbor list info ...
  update: every = 1 steps, delay = 0 steps, check = yes
  max neighbors/atom: 2000, page size: 100000
  master list distance cutoff = 8
  ghost atom cutoff = 8
  binsize = 4, bins = 3 4 8
  1 neighbor lists, perpetual/occasional/extra = 1 0 0
  (1) pair deepmd, perpetual
      attributes: full, newton on
      pair build: full/bin/atomonly
      stencil: full/bin/3d
      bin: standard
Setting up Verlet run ...
  Unit style    : metal
  Current step  : 0
  Time step     : 0.0005
colvars: Creating proxy instance
colvars: ----------------------------------------------------------------------
colvars: Initializing the collective variables module, version 2023-05-01.
colvars: Please cite Fiorin et al, Mol Phys 2013:
colvars:   https://doi.org/10.1080/00268976.2013.813594
colvars: as well as all other papers listed below for individual features used.
colvars: This version was built with the C++11 standard or higher.
colvars: Using LAMMPS interface, version "2023-04-12".
colvars: ----------------------------------------------------------------------
colvars: Reading new configuration from file "pmf.in":
colvars: # units = "" [default]
colvars: # smp = on [default]
colvars: # colvarsTrajFrequency = 100 [default]
colvars: # colvarsRestartFrequency = 0 [default]
colvars: # scriptedColvarForces = off [default]
colvars: # scriptingAfterBiases = off [default]
colvars: ----------------------------------------------------------------------
colvars:   Initializing a new collective variable.
colvars:   # name = "cn_H_Fe"
colvars:   Initializing a new "coordNum" component.
colvars:     # name = "" [default]
colvars:     # componentCoeff = 1 [default]
colvars:     # componentExp = 1 [default]
colvars:     # period = 0 [default]
colvars:     # wrapAround = 0 [default]
colvars:     # forceNoPBC = off [default]
colvars:     # scalable = on [default]
colvars:       Initializing atom group "group1".
colvars:       # name = "" [default]
colvars:       # centerToOrigin = off [default]
colvars:       # centerToReference = off [default]
colvars:       # rotateToReference = off [default]
colvars:       # atomsOfGroup = "" [default]
colvars:       # indexGroup = "" [default]
colvars:       # psfSegID =  [default]
colvars:       # atomsFile = "" [default]
colvars:       # dummyAtom = ( 0 , 0 , 0 ) [default]
colvars:       # enableFitGradients = on [default]
colvars:       # printAtomIDs = off [default]
colvars:       Atom group "group1" defined with 1 atoms requested.
colvars:       Initializing atom group "group2".
colvars:       # name = "" [default]
colvars:       # centerToOrigin = off [default]
colvars:       # centerToReference = off [default]
colvars:       # rotateToReference = off [default]
colvars:       # atomsOfGroup = "" [default]
colvars:       # indexGroup = "" [default]
colvars:       # psfSegID =  [default]
colvars:       # atomsFile = "" [default]
colvars:       # dummyAtom = ( 0 , 0 , 0 ) [default]
colvars:       # enableFitGradients = on [default]
colvars:       # printAtomIDs = off [default]
colvars:       Atom group "group2" defined with 168 atoms requested.
colvars:     # cutoff = 2.5
colvars:     # cutoff3 = ( 4 , 4 , 4 ) [default]
colvars:     # expNumer = 6 [default]
colvars:     # expDenom = 12 [default]
colvars:     # group2CenterOnly = off [default]
colvars:     # tolerance = 0 [default]
colvars:   All components initialized.
colvars:   # timeStepFactor = 1 [default]
colvars:   # width = 0.1
colvars:   # lowerBoundary = 0
colvars:   # upperBoundary = 6
colvars:   # hardLowerBoundary = on
colvars:   # hardUpperBoundary = off [default]
colvars:   # expandBoundaries = off [default]
colvars:   # extendedLagrangian = off [default]
colvars:   # outputValue = on [default]
colvars:   # outputVelocity = off [default]
colvars:   # outputTotalForce = off [default]
colvars:   # outputAppliedForce = off [default]
colvars:   # subtractAppliedForce = off [default]
colvars:   # runAve = off [default]
colvars:   # corrFunc = off [default]
colvars: ----------------------------------------------------------------------
colvars:   Initializing a new collective variable.
colvars:   # name = "cn_H_O"
colvars:   Initializing a new "coordNum" component.
colvars:     # name = "" [default]
colvars:     # componentCoeff = 1 [default]
colvars:     # componentExp = 1 [default]
colvars:     # period = 0 [default]
colvars:     # wrapAround = 0 [default]
colvars:     # forceNoPBC = off [default]
colvars:     # scalable = on [default]
colvars:       Initializing atom group "group1".
colvars:       # name = "" [default]
colvars:       # centerToOrigin = off [default]
colvars:       # centerToReference = off [default]
colvars:       # rotateToReference = off [default]
colvars:       # atomsOfGroup = "" [default]
colvars:       # indexGroup = "" [default]
colvars:       # psfSegID =  [default]
colvars:       # atomsFile = "" [default]
colvars:       # dummyAtom = ( 0 , 0 , 0 ) [default]
colvars:       # enableFitGradients = on [default]
colvars:       # printAtomIDs = off [default]
colvars:       Atom group "group1" defined with 1 atoms requested.
colvars:       Initializing atom group "group2".
colvars:       # name = "" [default]
colvars:       # centerToOrigin = off [default]
colvars:       # centerToReference = off [default]
colvars:       # rotateToReference = off [default]
colvars:       # atomsOfGroup = "" [default]
colvars:       # indexGroup = "" [default]
colvars:       # psfSegID =  [default]
colvars:       # atomsFile = "" [default]
colvars:       # dummyAtom = ( 0 , 0 , 0 ) [default]
colvars:       # enableFitGradients = on [default]
colvars:       # printAtomIDs = off [default]
colvars:       Atom group "group2" defined with 56 atoms requested.
colvars:     # cutoff = 2.5
colvars:     # cutoff3 = ( 4 , 4 , 4 ) [default]
colvars:     # expNumer = 6 [default]
colvars:     # expDenom = 12 [default]
colvars:     # group2CenterOnly = off [default]
colvars:     # tolerance = 0 [default]
colvars:   All components initialized.
colvars:   # timeStepFactor = 1 [default]
colvars:   # width = 0.1
colvars:   # lowerBoundary = 0
colvars:   # upperBoundary = 7
colvars:   # hardLowerBoundary = off [default]
colvars:   # hardUpperBoundary = off [default]
colvars:   # expandBoundaries = off [default]
colvars:   # extendedLagrangian = off [default]
colvars:   # outputValue = on [default]
colvars:   # outputVelocity = off [default]
colvars:   # outputTotalForce = off [default]
colvars:   # outputAppliedForce = off [default]
colvars:   # subtractAppliedForce = off [default]
colvars:   # runAve = off [default]
colvars:   # corrFunc = off [default]
colvars: ----------------------------------------------------------------------
colvars: Collective variables initialized, 2 in total.
colvars: ----------------------------------------------------------------------
colvars:   Initializing a new "metadynamics" instance.
colvars:   # name = "meta2d"
colvars:   # colvars = { cn_H_Fe, cn_H_O }
colvars:   # stepZeroData = off [default]
colvars:   # outputEnergy = off [default]
colvars:   # outputFreq = 0 [default]
colvars:   # timeStepFactor = 1 [default]
colvars:   # writeTISamples = off [default]
colvars:   # writeTIPMF = off [default]
colvars:   # hillWeight = 0.08
colvars:   # newHillFrequency = 500
colvars:   # gaussianSigmas =  [default]
colvars:   # hillWidth = 1
colvars:   Half-widths of the Gaussian hills (sigma's):
colvars:   cn_H_Fe: 0.05
colvars:   cn_H_O: 0.05
colvars:   # multipleReplicas = off [default]
colvars:   # useGrids = on [default]
colvars:   # gridsUpdateFrequency = 500 [default]
colvars:   # rebinGrids = off [default]
colvars:   # writeFreeEnergyFile = on [default]
colvars:   # keepHills = off [default]
colvars:   # keepFreeEnergyFiles = off [default]
colvars:   # writeHillsTrajectory = off [default]
colvars:   # wellTempered = off [default]
colvars:   # biasTemperature = 400
colvars:   # ebMeta = off [default]
colvars: ----------------------------------------------------------------------
colvars: Collective variables biases initialized, 1 in total.
colvars: ----------------------------------------------------------------------
colvars: Collective variables module (re)initialized.
colvars: ----------------------------------------------------------------------
colvars: Re-initialized atom group for variable "cn_H_Fe":0/0. 1 atoms: total mass = 1.008, total charge = 0.
colvars: Re-initialized atom group for variable "cn_H_Fe":0/1. 168 atoms: total mass = 9381.96, total charge = 5.36944e-309.
colvars: Re-initialized atom group for variable "cn_H_O":0/0. 1 atoms: total mass = 1.008, total charge = 0.
colvars: Re-initialized atom group for variable "cn_H_O":0/1. 56 atoms: total mass = 895.944, total charge = 5.37477e+131.
colvars: The restart output state file will be "rest.colvars.state".
colvars: The final output state file will be "out.colvars.state".
Per MPI rank memory allocation (min/avg/max) = 3.135 | 3.162 | 3.178 Mbytes
   Step          Temp         c_mTemp         PotEng         KinEng         TotEng         Press     
         0   149.51736      298.15        -2331.7924      6.5130762     -2325.2793     -15708.466    
        50   144.93761      289.0176      -2331.5886      6.3135792     -2325.275      -12540.075    
       100   138.42512      276.03115     -2331.2992      6.0298907     -2325.2693     -16555.603    
       150   141.66033      282.48243     -2331.4387      6.1708187     -2325.2679     -15068.362    
       200   135.03753      269.27602     -2331.1432      5.882325      -2325.2609     -17518.912    
       250   147.64049      294.40737     -2331.6903      6.4313186     -2325.259      -13225.352    
       300   146.70378      292.53949     -2331.6402      6.3905147     -2325.2497     -14711.885    
       350   142.41928      283.99585     -2331.4434      6.2038792     -2325.2395     -14283.754    
       400   140.88191      280.9302      -2331.3661      6.1369102     -2325.2292     -15840.074    
       450   141.99867      283.15711     -2331.4042      6.185557      -2325.2187     -14656.15     
       500   148.28732      295.6972      -2331.6532      6.4594949     -2325.1938     -14439.706    
       550   141.54823      282.25889     -2331.2538      6.1659354     -2325.0879     -15376.207    
       600   149.83167      298.77676     -2331.6199      6.5267677     -2325.0931     -14915.521    
       650   139.54373      278.26176     -2331.1485      6.0786183     -2325.0699     -14502.55     
       700   141.25365      281.67147     -2331.2046      6.1531034     -2325.0515     -13541.186    
       750   152.20207      303.50354     -2331.6586      6.6300241     -2325.0286     -14470.411    
       800   144.81489      288.77289     -2331.2929      6.3082336     -2324.9847     -17567.524    
       850   145.92286      290.98227     -2331.2834      6.3564973     -2324.927      -13826.157    
       900   150.87508      300.85741     -2331.48        6.5722194     -2324.9078     -13464.593    
       950   135.71635      270.62965     -2330.7843      5.9118951     -2324.8724     -16609.138    
      1000   158.19671      315.45735     -2331.7466      6.8911546     -2324.8555     -13867.314    
      1050   144.43986      288.02504     -2331.1143      6.2918968     -2324.8224     -13884.609    
      1100   159.89871      318.85127     -2331.7389      6.9652948     -2324.7736     -14124.338    
      1150   171.5999       342.18441     -2332.2578      7.4750063     -2324.7828     -15510.872    
      1200   168.03264      335.071       -2332.0617      7.319614      -2324.7421     -14320.952    
      1250   158.04968      315.16416     -2331.5642      6.8847498     -2324.6795     -14941.575    
      1300   162.77621      324.58925     -2331.7356      7.0906406     -2324.645      -13758.719    
      1350   177.60092      354.15094     -2332.3639      7.7364148     -2324.6275     -15283.877    
      1400   163.71215      326.45558     -2331.725       7.1314106     -2324.5936     -13185.832    
      1450   167.01821      333.04815     -2331.8495      7.275425      -2324.5741     -15053.591    
      1500   171.1938       341.37462     -2332.0089      7.4573165     -2324.5516     -13898.648    
      1550   158.73818      316.53708     -2331.4035      6.9147413     -2324.4887     -17223.428    
      1600   161.48469      322.01386     -2331.4834      7.0343813     -2324.449      -14895.219    
      1650   164.59586      328.21778     -2331.6043      7.1699058     -2324.4344     -14740.929    
      1700   161.53927      322.12269     -2331.4572      7.0367588     -2324.4204     -15233.232    
      1750   160.79376      320.63607     -2331.4389      7.0042836     -2324.4346     -15301.015    
      1800   161.2797       321.60509     -2331.3984      7.0254517     -2324.373      -16216.072    
      1850   157.37775      313.82426     -2331.2429      6.8554799     -2324.3874     -13349.627    
      1900   149.66363      298.44168     -2330.8684      6.5194479     -2324.3489     -12151.956    
      1950   171.40915      341.80404     -2331.7796      7.4666972     -2324.3129     -11775.162    
      2000   150.62645      300.36163     -2330.7997      6.561389      -2324.2383     -16225.418    
      2050   153.52555      306.14266     -2330.8883      6.6876756     -2324.2006     -13905.231    
      2100   180.69453      360.31987     -2331.963       7.8711747     -2324.0919     -12906.927    
      2150   162.84169      324.71982     -2331.1959      7.0934929     -2324.1024     -11806.458    
      2200   155.19076      309.46323     -2330.842       6.7602133     -2324.0818     -13298.352    
      2250   154.31465      307.71619     -2330.8836      6.7220493     -2324.1615     -13982.29     
      2300   159.19656      317.45112     -2331.0514      6.9347084     -2324.1167     -15868.151    
      2350   156.43315      311.94067     -2330.9203      6.8143328     -2324.106      -13390.046    
      2400   160.32089      319.69314     -2331.1033      6.9836854     -2324.1196     -12167.225    
      2450   144.62024      288.38473     -2330.4376      6.2997543     -2324.1378     -13882.511    
      2500   151.27529      301.65545     -2330.7507      6.5896526     -2324.1611     -11646.74     
      2550   150.37834      299.86687     -2330.6743      6.5505811     -2324.1238     -11954.886    
      2600   153.73525      306.56082     -2330.8066      6.6968103     -2324.1098     -14825.47     
      2650   168.68035      336.36259     -2331.4823      7.3478289     -2324.1344     -11749.509    
      2700   162.35063      323.7406      -2331.2001      7.0721018     -2324.128      -13202.693    
      2750   162.6837       324.40478     -2331.232       7.0866109     -2324.1454     -12021.518    
      2800   166.95448      332.92107     -2331.4418      7.2726489     -2324.1691     -16102.956    
      2850   158.788        316.63642     -2331.1341      6.9169113     -2324.2172     -11090.375    
      2900   162.53276      324.10379     -2331.3589      7.0800358     -2324.2789     -14119.876    
      2950   146.13522      291.40574     -2330.6797      6.365748      -2324.3139     -11964.682    
      3000   161.66569      322.37478     -2331.4049      7.0422656     -2324.3626     -12999.633    
      3050   175.55601      350.07323     -2331.9805      7.6473373     -2324.3331     -16290.358    
      3100   170.4439       339.87926     -2331.8547      7.4246503     -2324.43       -14784.441    
      3150   163.28746      325.60872     -2331.7295      7.112911      -2324.6166     -12924.478    
      3200   162.92947      324.89485     -2331.8307      7.0973165     -2324.7334     -14293.925    
      3250   157.97461      315.01446     -2331.5791      6.8814797     -2324.6976     -14782.036    
      3300   167.40488      333.8192      -2332.1087      7.2922685     -2324.8164     -14020.847    
      3350   152.80967      304.71514     -2331.4841      6.6564915     -2324.8276     -13846.421    
      3400   152.6826       304.46176     -2331.5231      6.6509563     -2324.8721     -14797.857    
      3450   158.16024      315.38462     -2331.8681      6.8895657     -2324.9785     -13492.976    
      3500   153.13491      305.3637      -2331.7093      6.6706592     -2325.0386     -13179.079    
      3550   139.95446      279.08078     -2331.115       6.0965097     -2325.0185     -13445.791    
      3600   155.09787      309.278       -2331.8959      6.7561668     -2325.1398     -13591.803    
      3650   144.65705      288.45814     -2331.5274      6.3013579     -2325.226      -14653.209    
      3700   146.16881      291.47271     -2331.6552      6.367211      -2325.288      -12509.14     
      3750   141.7605       282.68218     -2331.5603      6.1751822     -2325.3851     -15964.723    
      3800   170.82042      340.63006     -2332.8238      7.4410516     -2325.3828     -15656.227    
      3850   154.63084      308.3467      -2332.1848      6.7358227     -2325.4489     -14102.359    
      3900   164.61043      328.24682     -2332.6724      7.1705402     -2325.5019     -13815.23     
      3950   163.09821      325.23133     -2332.7065      7.104667      -2325.6018     -14748.69     
      4000   168.98409      336.96827     -2333.0086      7.3610598     -2325.6475     -10548.493    
      4050   146.4105       291.95467     -2332.0642      6.3777395     -2325.6864     -14398.4      
      4100   155.50752      310.09487     -2332.5548      6.7740114     -2325.7808     -13730.237    
      4150   161.02476      321.09672     -2332.8642      7.0143465     -2325.8498     -13387.701    
      4200   158.45606      315.9745      -2332.7466      6.9024518     -2325.8442     -13352.679    
      4250   160.56161      320.17315     -2332.896       6.9941712     -2325.9019     -11682.87     
      4300   164.71737      328.46007     -2333.0432      7.1751986     -2325.868      -12195.166    
      4350   166.76566      332.54455     -2333.0502      7.2644238     -2325.7858     -11450.024    
      4400   152.69076      304.47803     -2332.3649      6.6513118     -2325.7136     -11890.938    
      4450   155.82757      310.73309     -2332.5087      6.7879534     -2325.7207     -12570.359    
      4500   145.97951      291.09525     -2332.0858      6.3589653     -2325.7269     -13966.397    
      4550   153.43381      305.95973     -2332.4413      6.6836794     -2325.7576     -15076.199    
      4600   143.66057      286.47108     -2332.0628      6.2579506     -2325.8048     -13423.678    
      4650   145.5652       290.26907     -2332.2537      6.3409176     -2325.9127     -12570.048    
      4700   156.74084      312.55422     -2332.7067      6.827736      -2325.8789     -12966.252    
      4750   154.70618      308.49694     -2332.6573      6.7391047     -2325.9182     -15068.754    
      4800   144.40703      287.95958     -2332.204       6.2904668     -2325.9135     -12611.976    
      4850   137.81888      274.82226     -2331.8444      6.0034825     -2325.8409     -13995.13     
      4900   165.12738      329.27768     -2332.9907      7.1930592     -2325.7977     -14196.327    
      4950   158.88551      316.83088     -2332.794       6.9211592     -2325.8728     -13234.886    
      5000   155.72777      310.53408     -2332.7003      6.783606      -2325.9167     -15085.859    
      5050   162.45982      323.95835     -2332.971       7.0768586     -2325.8941     -15288.243    
      5100   144.50494      288.15482     -2332.1706      6.2947319     -2325.8759     -15269.196    
      5150   147.66671      294.45966     -2332.1988      6.4324608     -2325.7663     -12617.264    
      5200   152.36698      303.83238     -2332.4196      6.6372077     -2325.7824     -14033.546    
      5250   146.88822      292.90728     -2332.1959      6.3985492     -2325.7973     -14419.687    
      5300   160.2146       319.48118     -2332.6911      6.9790549     -2325.712      -13397.045    
      5350   158.07687      315.21837     -2332.622       6.8859341     -2325.7361     -14609.94     
      5400   149.70626      298.52668     -2332.2339      6.5213048     -2325.7126     -11911.544    
      5450   157.71988      314.5065      -2332.4473      6.8703833     -2325.577      -12330.41     
      5500   149.88007      298.87328     -2332.1106      6.5288763     -2325.5817     -12262.945    
      5550   175.22653      349.41621     -2333.28        7.6329847     -2325.647      -12257.163    
      5600   164.52148      328.06947     -2332.9509      7.1666658     -2325.7842     -13919.188    
      5650   151.75683      302.61568     -2332.4174      6.6106289     -2325.8068     -15376.084    
      5700   152.23161      303.56243     -2332.5805      6.6313105     -2325.9491     -14296.478    
      5750   157.79871      314.66371     -2332.8956      6.8738175     -2326.0218     -11711.72     
      5800   161.35681      321.75884     -2333.0914      7.0288104     -2326.0625     -15885.988    
      5850   147.69276      294.5116      -2332.5095      6.4335955     -2326.0759     -14337.914    
      5900   149.55663      298.2283      -2332.6309      6.5147867     -2326.1161     -15843.556    
      5950   142.41173      283.98078     -2332.3516      6.2035501     -2326.148      -14769.042    
      6000   140.84774      280.86206     -2332.3139      6.1354218     -2326.1785     -14861.803    
      6050   162.2487       323.53735     -2333.1686      7.067662      -2326.1009     -14482.621    
      6100   155.68204      310.44289     -2332.951       6.781614      -2326.1694     -10548.61     
      6150   150.22789      299.56685     -2332.7553      6.5440272     -2326.2112     -15027.749    
      6200   154.66057      308.40599     -2333.0404      6.737118      -2326.3033     -12482.562    
      6250   145.35771      289.85532     -2332.7255      6.3318792     -2326.3937     -12568.49     
      6300   153.47125      306.03439     -2333.0615      6.6853104     -2326.3761     -13634.846    
      6350   174.70942      348.38506     -2333.9214      7.6104592     -2326.311      -12147.75     
      6400   146.61799      292.36841     -2332.533       6.3867776     -2326.1462     -10769.744    
      6450   153.27998      305.65297     -2332.8549      6.6769783     -2326.1779     -12007.814    
      6500   151.62205      302.34693     -2332.7851      6.604758      -2326.1803     -12096.255    
      6550   159.26968      317.59694     -2333.1659      6.9378939     -2326.228      -12930.729    
      6600   148.25735      295.63744     -2332.5905      6.4581894     -2326.1323     -12631.047    
      6650   152.55276      304.20284     -2332.8114      6.6453002     -2326.1661     -14356.291    
      6700   166.37622      331.76797     -2333.3877      7.2474596     -2326.1403     -13212.552    
      6750   152.73         304.55628     -2333.045       6.6530212     -2326.3919     -11744.342    
      6800   161.06336      321.17368     -2333.4375      7.0160276     -2326.4215     -12018.39     
      6850   154.59562      308.27647     -2333.2083      6.7342885     -2326.4741     -15107.163    
      6900   158.81832      316.69688     -2333.5193      6.918232      -2326.6011     -15295.633    
      6950   146.24079      291.61625     -2333.008       6.3703467     -2326.6377     -12245.587    
      7000   129.10283      257.44175     -2332.2867      5.6238058     -2326.6629     -14590.098    
      7050   162.3601       323.75949     -2333.6624      7.0725146     -2326.5899     -13844.693    
      7100   150.88986      300.88689     -2333.1873      6.5728634     -2326.6144     -11157.578    
      7150   146.356        291.84599     -2333.0171      6.3753652     -2326.6418     -12662.04     
      7200   160.5848       320.21939     -2333.6664      6.9951813     -2326.6712     -13523.542    
      7250   142.6991       284.55382     -2332.9524      6.2160681     -2326.7364     -12144.351    
      7300   141.28596      281.73591     -2332.9797      6.154511      -2326.8252     -12766.532    
      7350   147.10309      293.33574     -2333.302       6.4079088     -2326.8941     -12044.452    
      7400   132.79645      264.80712     -2332.5581      5.7847022     -2326.7734     -11686.578    
      7450   159.53188      318.11979     -2333.5301      6.9493155     -2326.5807     -12717.863    
      7500   136.50822      272.20871     -2332.5132      5.9463895     -2326.5668     -11432.694    
      7550   152.29353      303.68591     -2333.1957      6.634008      -2326.5617     -14753.011    
      7600   141.05012      281.26562     -2332.7656      6.1442375     -2326.6214     -12031.5      
      7650   147.35954      293.84713     -2332.9683      6.4190802     -2326.5492     -13938.85     
      7700   154.59802      308.28126     -2333.3142      6.7343932     -2326.5798     -13618.515    
      7750   150.94618      300.99919     -2333.1594      6.5753165     -2326.5841     -15322.126    
      7800   143.89652      286.94159     -2332.8596      6.2682288     -2326.5914     -13757.897    
      7850   136.95025      273.09014     -2332.6619      5.9656444     -2326.6963     -12767.394    
      7900   142.30261      283.76318     -2332.8138      6.1987967     -2326.615      -15126.356    
      7950   150.26457      299.63999     -2333.2402      6.545625      -2326.6945     -14002.069    
      8000   138.62584      276.43141     -2332.6687      6.0386344     -2326.6301     -13075.436    
      8050   133.25178      265.71508     -2332.4445      5.8045366     -2326.6399     -13441.752    
      8100   155.91696      310.91133     -2333.3268      6.7918469     -2326.535      -13475.424    
      8150   136.49221      272.17678     -2332.5494      5.9456921     -2326.6038     -15033.163    
      8200   144.03101      287.20976     -2332.8562      6.274087      -2326.5821     -13288.631    
      8250   155.66994      310.41875     -2333.3473      6.7810865     -2326.5662     -14135.666    
      8300   142.29699      283.75198     -2332.7701      6.1985519     -2326.5716     -14070.288    
      8350   154.89399      308.87145     -2333.2142      6.7472859     -2326.4669     -13686.602    
      8400   139.0145       277.20642     -2332.5727      6.0555644     -2326.5171     -12784.197    
      8450   146.95838      293.04718     -2332.9141      6.4016051     -2326.5125     -12049.165    
      8500   139.64954      278.47274     -2332.5833      6.0832272     -2326.5        -14752.728    
      8550   155.58056      310.24053     -2333.2084      6.7771933     -2326.4312     -14186.976    
      8600   157.81713      314.70044     -2333.3362      6.8746199     -2326.4616     -16066.571    
      8650   135.98204      271.15945     -2332.3772      5.9234685     -2326.4538     -13115.408    
      8700   146.71424      292.56035     -2332.835       6.3909704     -2326.444      -12629.952    
      8750   152.91507      304.92531     -2333.0994      6.6610826     -2326.4383     -15082.304    
      8800   145.03585      289.2135      -2332.7499      6.3178587     -2326.432      -14360.205    
      8850   141.22225      281.60886     -2332.5125      6.1517355     -2326.3608     -11400.767    
      8900   136.74832      272.68749     -2332.2926      5.9568485     -2326.3357     -13575.279    
      8950   150.65915      300.42683     -2332.9117      6.5628135     -2326.3489     -11282.938    
      9000   135.53168      270.26139     -2332.1156      5.9038505     -2326.2117     -13472.187    
      9050   155.69665      310.47202     -2332.8689      6.7822503     -2326.0866     -13525.106    
      9100   166.0938       331.2048      -2333.3686      7.235157      -2326.1334     -11222.796    
      9150   158.1641       315.39232     -2332.9645      6.8897339     -2326.0748     -11474.39     
      9200   170.7829       340.55526     -2333.5098      7.4394175     -2326.0704     -14562.249    
      9250   166.17676      331.37022     -2333.2892      7.2387707     -2326.0504     -14042.655    
      9300   154.82146      308.72682     -2332.7805      6.7441264     -2326.0363     -14212.128    
      9350   164.1732       327.37496     -2333.2161      7.1514944     -2326.0646     -15510.352    
      9400   153.18474      305.46306     -2332.717       6.6728297     -2326.0441     -13767.671    
      9450   160.32947      319.71025     -2333.0438      6.9840592     -2326.0598     -12331.996    
      9500   151.62808      302.35895     -2332.7531      6.6050205     -2326.1481     -13402.391    
      9550   152.97312      305.04107     -2332.7647      6.6636114     -2326.101      -15285.431    
      9600   145.09402      289.3295      -2332.3666      6.3203926     -2326.0462     -14134.62     
      9650   148.36584      295.85378     -2332.4887      6.4629153     -2326.0258     -14218.53     
      9700   151.45855      302.02089     -2332.6194      6.5976355     -2326.0218     -11972.604    
      9750   148.1228       295.36913     -2332.3979      6.4523281     -2325.9456     -14024.812    
      9800   147.60539      294.33738     -2332.3049      6.4297897     -2325.8751     -13455.476    
      9850   149.658        298.43045     -2332.228       6.5192027     -2325.7088     -12813.213    
      9900   148.26111      295.64494     -2332.1869      6.4583533     -2325.7286     -12312.298    
      9950   156.6082       312.28973     -2332.5506      6.821958      -2325.7286     -15189.123    
     10000   146.3563       291.8466      -2332.0895      6.3753785     -2325.7141     -13010.9      
     10050   151.08882      301.28363     -2332.2838      6.5815302     -2325.7023     -12441.768    
     10100   178.32922      355.60324     -2333.5003      7.7681402     -2325.7321     -12423.855    
     10150   170.57594      340.14255     -2333.1381      7.4304019     -2325.7077     -12250.368    
     10200   173.89587      346.76277     -2333.3494      7.5750204     -2325.7744     -13139.036    
     10250   163.79378      326.61837     -2332.9194      7.1349666     -2325.7845     -12678.702    
     10300   175.80242      350.56458     -2333.5104      7.6580709     -2325.8523     -12099.83     
     10350   173.47744      345.92838     -2333.3999      7.5567932     -2325.8431     -11305.386    
     10400   173.22182      345.41867     -2333.4953      7.5456585     -2325.9496     -10080.655    
     10450   177.42109      353.79235     -2333.7622      7.7285813     -2326.0336     -12366.913    
     10500   147.68311      294.49235     -2332.4676      6.433175      -2326.0344     -15287.206    
     10550   169.11712      337.23354     -2333.4456      7.3668546     -2326.0788     -12285.079    
     10600   168.78942      336.58008     -2333.3846      7.3525799     -2326.032      -12018.07     
     10650   170.84756      340.68418     -2333.5687      7.4422339     -2326.1264     -14761.303    
     10700   146.95474      293.03992     -2332.6556      6.4014466     -2326.2542     -15243.668    
     10750   154.85139      308.7865      -2333.064       6.7454301     -2326.3186     -16179.405    
     10800   164.29989      327.6276      -2333.5335      7.1570133     -2326.3764     -14315.284    
     10850   161.811        322.66454     -2333.5108      7.0485954     -2326.4622     -13965.172    
     10900   168.14208      335.28924     -2333.7879      7.3243814     -2326.4635     -13137.509    
     10950   155.93603      310.94936     -2333.3443      6.7926777     -2326.5516     -11062.904    
     11000   157.97021      315.00569     -2333.5377      6.8812881     -2326.6564     -14055.249    
     11050   161.92774      322.89734     -2333.6479      7.0536808     -2326.5942     -13079.21     
     11100   149.89099      298.89504     -2333.2159      6.5293516     -2326.6865     -12926.132    
     11150   155.19938      309.48042     -2333.4695      6.7605888     -2326.709      -12547.479    
     11200   141.63437      282.43067     -2332.9902      6.169688      -2326.8206     -14530.173    
     11250   149.88575      298.88461     -2333.444       6.5291236     -2326.9149     -13316.688    
     11300   157.0468       313.16432     -2333.7795      6.8410634     -2326.9384     -13486.402    
     11350   153.95622      307.00145     -2333.7263      6.7064359     -2327.0198     -14264.183    
     11400   160.70746      320.46398     -2333.9688      7.0005243     -2326.9683     -11016.939    
     11450   157.78584      314.63804     -2333.8254      6.8732567     -2326.9521     -14509.115    
     11500   140.97746      281.12073     -2333.0983      6.1410725     -2326.9572     -14899.033    
     11550   145.70902      290.55585     -2333.2643      6.3471822     -2326.9171     -13712.152    
     11600   145.56796      290.27458     -2333.3591      6.3410379     -2327.0181     -13757.902    
     11650   148.03713      295.19831     -2333.299       6.4485965     -2326.8504     -13247.431    
     11700   148.9306       296.97996     -2333.1256      6.4875167     -2326.6381     -14324.412    
     11750   146.40445      291.9426      -2332.7681      6.3774757     -2326.3906     -14899.526    
     11800   154.18183      307.45134     -2332.9835      6.7162637     -2326.2672     -13873.31     
     11850   142.08318      283.32563     -2332.4413      6.1892383     -2326.2521     -14296.767    
     11900   154.4945       308.07484     -2333.0161      6.7298839     -2326.2862     -14634.192    
     11950   158.85461      316.76926     -2333.2394      6.9198133     -2326.3196     -12836.931    
     12000   164.93496      328.89396     -2333.5444      7.184677      -2326.3598     -13943.54     
     12050   155.13033      309.34274     -2333.0802      6.7575811     -2326.3227     -16508.562    
     12100   176.55647      352.06823     -2334.0533      7.6909179     -2326.3624     -16375.078    
     12150   152.62728      304.35145     -2333.0684      6.6485466     -2326.4199     -13569.123    
     12200   151.14985      301.40532     -2333.0178      6.5841885     -2326.4336     -13723.821    
     12250   152.48259      304.06292     -2333.1248      6.6422436     -2326.4826     -15353.793    
     12300   176.80947      352.57274     -2334.2155      7.7019389     -2326.5136     -20020.403    
     12350   166.6199       332.25388     -2333.8114      7.2580741     -2326.5533     -16601.438    
     12400   149.65374      298.42196     -2333.1713      6.5190172     -2326.6523     -16237.315    
     12450   147.88685      294.89862     -2333.0698      6.4420499     -2326.6278     -12885.068    
     12500   167.98607      334.97813     -2333.9997      7.3175854     -2326.6821     -15921.615    
     12550   158.16331      315.39075     -2333.5232      6.8896997     -2326.6335     -17825.559    
     12600   169.1718       337.34258     -2334.0566      7.3692367     -2326.6873     -16463.226    
     12650   165.32836      329.67844     -2333.9393      7.2018139     -2326.7375     -15475.069    
     12700   150.76499      300.63788     -2333.3553      6.5674237     -2326.7879     -18636.544    
     12750   172.13618      343.25381     -2334.3426      7.4983672     -2326.8442     -15184.66     
     12800   155.35964      309.79999     -2333.6516      6.7675698     -2326.884      -15701.104    
     12850   149.60699      298.32873     -2333.4418      6.5169806     -2326.9248     -17554.321    
     12900   139.8747       278.92175     -2333.0657      6.0930357     -2326.9727     -14590.859    
     12950   161.13949      321.32548     -2334.0343      7.0193437     -2327.0149     -17428.525    
     13000   165.83069      330.68013     -2334.2828      7.2236957     -2327.0591     -17089.672    
     13050   156.52069      312.11522     -2333.9071      6.8181459     -2327.089      -17360.152    
     13100   142.11092      283.38095     -2333.3151      6.1904469     -2327.1247     -15595.333    
     13150   142.41264      283.98261     -2333.3771      6.20359       -2327.1735     -16379.845    
     13200   166.83484      332.68249     -2334.494       7.2674373     -2327.2266     -15724.518    
     13250   136.67736      272.54598     -2333.219       5.9537573     -2327.2652     -19211.838    
     13300   157.42523      313.91895     -2334.1682      6.8575482     -2327.3106     -17698.172    
     13350   157.46215      313.99257     -2334.2194      6.8591565     -2327.3602     -20362.593    
     13400   146.95867      293.04775     -2333.8045      6.4016177     -2327.4029     -17966.859    
     13450   147.37378      293.87552     -2333.8441      6.4197004     -2327.4244     -17022.716    
     13500   161.23733      321.5206      -2334.4556      7.0236061     -2327.432      -19392.848    
     13550   160.95706      320.96171     -2334.4957      7.0113972     -2327.4843     -17355.667    
     13600   141.20532      281.5751      -2333.6622      6.150998      -2327.5112     -15426.226    
     13650   163.21687      325.46795     -2334.6601      7.1098359     -2327.5502     -15866.25     
     13700   140.50361      280.17585     -2333.6982      6.1204314     -2327.5778     -17192.311    
     13750   138.71639      276.61198     -2333.6571      6.0425788     -2327.6145     -17102.897    
     13800   147.07673      293.28318     -2334.0566      6.4067606     -2327.6498     -16052.853    
     13850   133.81574      266.83968     -2333.4943      5.8291033     -2327.6652     -17424.612    
     13900   145.73712      290.6119      -2334.0506      6.3484066     -2327.7021     -18068.233    
     13950   144.34163      287.82918     -2334.0191      6.2876181     -2327.7315     -14707.968    
     14000   152.26005      303.61915     -2334.3932      6.6325496     -2327.7606     -17640.455    
     14050   156.30377      311.68267     -2334.5811      6.8086969     -2327.7724     -18652.408    
     14100   135.94283      271.08127     -2333.5605      5.9217607     -2327.6388     -14151.23     
     14150   154.56983      308.22504     -2334.4157      6.733165      -2327.6826     -15510.496    
     14200   142.87683      284.90823     -2334.0648      6.2238103     -2327.841      -17278.19     
     14250   161.17389      321.39409     -2334.7191      7.0208425     -2327.6982     -16123.723    
     14300   152.91284      304.92087     -2334.5476      6.6609856     -2327.8866     -15572.493    
     14350   135.27313      269.74584     -2333.7895      5.8925882     -2327.8969     -15489.288    
     14400   141.85772      282.87604     -2334.1094      6.179417      -2327.9299     -18802.946    
     14450   142.70905      284.57367     -2334.1597      6.2165017     -2327.9432     -18092.728    
     14500   154.75644      308.59715     -2334.7026      6.7412939     -2327.9613     -19735.328    
     14550   145.83379      290.80467     -2334.2734      6.3526176     -2327.9208     -15773.994    
     14600   155.45847      309.99707     -2334.6587      6.771875      -2327.8868     -18010.982    
     14650   150.70386      300.51598     -2334.4368      6.564761      -2327.872      -17882.123    
     14700   152.49256      304.0828      -2334.5414      6.6426779     -2327.8988     -17286.175    
     14750   156.48661      312.04726     -2334.8246      6.8166614     -2328.0079     -18344.995    
     14800   154.26048      307.60817     -2334.7641      6.7196896     -2328.0444     -19117.089    
     14850   132.59438      264.40419     -2333.7006      5.7759        -2327.9247     -21229.507    
     14900   144.20486      287.55643     -2334.2404      6.2816601     -2327.9587     -15887.626    
     14950   150.71949      300.54714     -2334.5741      6.5654416     -2328.0086     -18556.804    
     15000   152.31805      303.73481     -2334.6158      6.6350762     -2327.9807     -16362.33     
     15050   138.46096      276.10262     -2333.9908      6.031452      -2327.9593     -18691.859    
     15100   148.54788      296.21678     -2334.4417      6.470845      -2327.9709     -16535.202    
     15150   160.66483      320.37898     -2335.0149      6.9986674     -2328.0162     -17949.238    
     15200   156.50342      312.08078     -2334.9083      6.8173935     -2328.0909     -16696.752    
     15250   154.35795      307.80255     -2334.8406      6.7239357     -2328.1167     -15853.626    
     15300   135.11901      269.43851     -2333.9002      5.8858746     -2328.0143     -15333.263    
     15350   157.8959       314.8575      -2334.8001      6.8780509     -2327.9221     -14917.529    
     15400   153.43302      305.95814     -2334.8096      6.6836448     -2328.126      -16072.665    
     15450   159.24516      317.54803     -2334.8562      6.9368255     -2327.9194     -15120.003    
     15500   151.40699      301.91808     -2334.8241      6.5953898     -2328.2287     -16524.93     
     15550   141.5386       282.2397      -2334.0972      6.1655161     -2327.9317     -13130.024    
     15600   151.28845      301.68169     -2334.5005      6.5902259     -2327.9102     -15168.328    
     15650   150.16058      299.43263     -2334.8204      6.5410952     -2328.2793     -17372.157    
     15700   148.21518      295.55334     -2334.5642      6.4563522     -2328.1079     -13626.98     
     15750   143.17855      285.50988     -2334.5079      6.2369533     -2328.271      -16608.566    
     15800   159.19557      317.44915     -2335.2082      6.9346654     -2328.2735     -17276.137    
     15850   157.71211      314.49101     -2335.2434      6.870045      -2328.3734     -18455.149    
     15900   141.13129      281.42748     -2334.2008      6.1477734     -2328.053      -14865.891    
     15950   144.80417      288.75151     -2334.3853      6.3077665     -2328.0775     -15238.308    
     16000   137.47254      274.13163     -2334.4449      5.9883956     -2328.4565     -17899.911    
     16050   150.41171      299.93342     -2335.0057      6.5520349     -2328.4536     -16897.075    
     16100   131.82772      262.87539     -2334.1576      5.7425036     -2328.4151     -17429.099    
     16150   145.19518      289.53121     -2334.6856      6.324799      -2328.3608     -19561.105    
     16200   155.10436      309.29095     -2335.2455      6.7564498     -2328.489      -16885.095    
     16250   141.7351       282.63154     -2334.6742      6.1740759     -2328.5001     -16918.437    
     16300   135.55742      270.31273     -2334.3828      5.9049721     -2328.4779     -15243.685    
     16350   148.06627      295.25641     -2334.9813      6.4498658     -2328.5315     -20983.531    
     16400   142.88204      284.91863     -2334.7583      6.2240373     -2328.5342     -16060.597    
     16450   132.79277      264.79978     -2334.4065      5.7845419     -2328.622      -19714.845    
     16500   142.56835      284.2931      -2334.8781      6.2103726     -2328.6678     -16042.669    
     16550   147.9074       294.93961     -2335.1892      6.4429453     -2328.7462     -17294.872    
     16600   126.86592      252.98116     -2333.8489      5.5263644     -2328.3225     -17830.324    
     16650   164.80084      328.62653     -2335.6096      7.1788348     -2328.4308     -14956.209    
     16700   142.47934      284.11561     -2334.9919      6.2064954     -2328.7854     -15678.572    
     16750   135.10575      269.41205     -2334.6929      5.8852966     -2328.8076     -17568.976    
     16800   153.91437      306.918       -2335.6112      6.7046128     -2328.9066     -18122.652    
     16850   142.24705      283.6524      -2335.2129      6.1963765     -2329.0166     -17412.037    
     16900   155.88814      310.85386     -2335.3651      6.7905916     -2328.5745     -17073.608    
     16950   135.6046       270.4068      -2335.0193      5.9070269     -2329.1123     -16929.687    
     17000   131.81657      262.85315     -2334.7762      5.7420178     -2329.0342     -14975.729    
     17050   141.55         282.26242     -2335.2872      6.1660125     -2329.1212     -15264.11     
     17100   138.61922      276.4182      -2334.9483      6.0383458     -2328.91       -15085.866    
     17150   150.66253      300.43357     -2335.783       6.5629606     -2329.22       -19096.877    
     17200   152.82549      304.74668     -2335.7931      6.6571804     -2329.1359     -15801.448    
     17250   153.17504      305.44372     -2335.7994      6.6724073     -2329.127      -16096.053    
     17300   152.10387      303.30771     -2335.8404      6.6257461     -2329.2146     -15601.333    
     17350   129.94136      259.11384     -2335.0231      5.6603327     -2329.3627     -17753.194    
     17400   147.2353       293.59939     -2335.7781      6.4136683     -2329.3644     -17873.4      
     17450   130.04831      259.32711     -2335.1195      5.6649916     -2329.4545     -17545.832    
     17500   144.52132      288.18747     -2335.6416      6.2954452     -2329.3462     -16138.024    
     17550   131.23266      261.68879     -2335.2095      5.7165823     -2329.4929     -18068.17     
     17600   132.76672      264.74785     -2335.1754      5.7834073     -2329.3919     -16699.726    
     17650   124.53986      248.34279     -2334.9296      5.4250394     -2329.5045     -17969.746    
     17700   144.07749      287.30245     -2335.7231      6.2761117     -2329.447      -17523.629    
     17750   133.94605      267.09952     -2335.414       5.8347796     -2329.5792     -17179.557    
     17800   142.78242      284.71997     -2335.8026      6.2196975     -2329.5829     -15410.937    
     17850   145.45807      290.05545     -2335.9579      6.3362509     -2329.6217     -16878.935    
     17900   125.18708      249.63341     -2335.1474      5.4532329     -2329.6941     -15128.475    
     17950   128.81824      256.87423     -2335.2882      5.6114085     -2329.6768     -16783.219    
     18000   153.58601      306.26322     -2335.8476      6.6903092     -2329.1573     -13384.709    
     18050   140.07692      279.32498     -2335.176       6.1018443     -2329.0741     -15115.066    
     18100   151.97147      303.04371     -2336.0271      6.619979      -2329.4071     -16798.317    
     18150   132.2103       263.6383      -2334.874       5.7591693     -2329.1149     -14951.821    
     18200   118.86126      237.01919     -2334.8405      5.1776758     -2329.6629     -15328.871    
     18250   136.9296       273.04896     -2335.0789      5.9647448     -2329.1142     -17304.77     
     18300   127.07124      253.39058     -2334.6247      5.5353083     -2329.0894     -15254.926    
     18350   128.00044      255.24348     -2334.6553      5.5757848     -2329.0795     -14442.327    
     18400   132.72483      264.66431     -2334.8531      5.7815825     -2329.0715     -12340.103    
     18450   142.91643      284.98719     -2335.312       6.2255351     -2329.0864     -18432.055    
     18500   112.02697      223.39105     -2334.5025      4.8799696     -2329.6225     -17971.563    
     18550   147.04423      293.21837     -2335.9724      6.4053448     -2329.5671     -18070.846    
     18600   150.43796      299.98575     -2335.5325      6.5531781     -2328.9793     -14006.703    
     18650   135.67569      270.54857     -2334.7935      5.910124      -2328.8833     -17542.372    
     18700   136.88842      272.96685     -2334.9312      5.9629511     -2328.9682     -14056.261    
     18750   132.23636      263.69025     -2334.5583      5.7603042     -2328.798      -13188.86     
     18800   141.21052      281.58547     -2334.9683      6.1512247     -2328.817      -14776.218    
     18850   151.9856       303.07188     -2335.3376      6.6205945     -2328.717      -16924.318    
     18900   132.73414      264.68288     -2334.3828      5.7819881     -2328.6008     -15186.415    
     18950   150.16851      299.44844     -2335.0749      6.5414406     -2328.5335     -11200.933    
     19000   142.95652      285.06715     -2334.6699      6.2272818     -2328.4426     -14143.526    
     19050   144.71076      288.56524     -2335.2549      6.3036973     -2328.9512     -18742.463    
     19100   145.75949      290.65649     -2335.0253      6.3493807     -2328.6759     -15276.621    
     19150   140.90616      280.97855     -2334.834       6.1379665     -2328.6961     -13920.77     
     19200   141.5007       282.16413     -2334.7281      6.1638653     -2328.5642     -17944.141    
     19250   153.61921      306.32942     -2335.1855      6.6917554     -2328.4938     -15142.401    
     19300   140.5623       280.29287     -2334.5389      6.1229878     -2328.4159     -17644.398    
     19350   159.85814      318.77037     -2335.3962      6.9635274     -2328.4327     -17509.529    
     19400   164.1212       327.27127     -2335.5076      7.1492294     -2328.3584     -15807.314    
     19450   152.96095      305.01681     -2334.9511      6.6630813     -2328.288      -15537.445    
     19500   150.46762      300.04489     -2334.7963      6.55447       -2328.2419     -14099.755    
     19550   172.14872      343.27881     -2335.06        7.4989134     -2327.5611     -15692.193    
     19600   154.99696      309.07678     -2334.8994      6.7517712     -2328.1477     -18602.314    
     19650   160.74409      320.53704     -2334.9704      7.0021202     -2327.9682     -15349.81     
     19700   156.99568      313.0624      -2334.9406      6.838837      -2328.1017     -16436.978    
     19750   154.15836      307.40455     -2334.1864      6.7152415     -2327.4712     -15992.872    
     19800   139.79472      278.76226     -2334.2071      6.0895517     -2328.1176     -16846.612    
     19850   144.26891      287.68416     -2334.369       6.2844503     -2328.0846     -17491.677    
     19900   145.74939      290.63635     -2334.3306      6.3489407     -2327.9817     -19100.167    
     19950   154.9381       308.95941     -2334.7585      6.7492073     -2328.0093     -19331.613    
     20000   162.17483      323.39005     -2334.9984      7.0644441     -2327.934      -15738.031    
     20050   159.43889      317.93435     -2334.8238      6.9452647     -2327.8786     -16071.789    
     20100   152.97659      305.04798     -2334.5191      6.6637624     -2327.8554     -17383.484    
     20150   154.16712      307.42202     -2334.621       6.7156231     -2327.9054     -17689.547    
     20200   158.50689      316.07587     -2334.8555      6.9046661     -2327.9508     -15698.988    
     20250   155.85919      310.79613     -2334.5183      6.7893304     -2327.729      -17037.949    
     20300   140.39773      279.96471     -2334.0066      6.1158191     -2327.8908     -19750.568    
     20350   148.70303      296.52615     -2333.9684      6.4776032     -2327.4908     -15458.577    
     20400   147.50285      294.1329      -2334.0887      6.4253228     -2327.6634     -17776.952    
     20450   151.41649      301.93703     -2334.5887      6.5958036     -2327.9929     -17503.669    
     20500   146.77258      292.67669     -2333.6149      6.3935118     -2327.2214     -17125.663    
     20550   151.19447      301.4943      -2333.6889      6.5861322     -2327.1027     -13205.35     
     20600   159.64235      318.34008     -2334.0822      6.9541277     -2327.1281     -15261.392    
     20650   162.29759      323.63484     -2334.8283      7.0697916     -2327.7586     -17660.136    
     20700   149.55954      298.23412     -2333.6441      6.5149138     -2327.1292     -13971.829    
     20750   167.00076      333.01334     -2334.2503      7.2746646     -2326.9756     -14396.549    
     20800   141.9872       283.13424     -2333.1643      6.1850575     -2326.9793     -12592.255    
     20850   173.37102      345.71618     -2334.6342      7.5521578     -2327.0821     -15044.48     
     20900   167.37317      333.75596     -2334.4918      7.2908871     -2327.2009     -12661.019    
     20950   152.01717      303.13483     -2334.0598      6.6219697     -2327.4378     -13820.933    
     21000   166.0663       331.14995     -2334.796       7.233959      -2327.562      -10118.536    
     21050   152.28166      303.66224     -2334.239       6.6334908     -2327.6055     -14880.349    
     21100   143.51091      286.17265     -2333.875       6.2514313     -2327.6236     -15411.833    
     21150   158.00164      315.06835     -2334.7258      6.882657      -2327.8431     -13303.747    
     21200   134.70437      268.61168     -2333.8032      5.8678125     -2327.9354     -12546.167    
     21250   140.94206      281.05014     -2334.1336      6.1395303     -2327.9941     -16656.151    
     21300   147.32427      293.77679     -2334.5769      6.4175436     -2328.1594     -11850.764    
     21350   147.94937      295.0233      -2334.5779      6.4447736     -2328.1331     -14675.648    
     21400   142.27716      283.71244     -2334.3717      6.1976883     -2328.174      -12052.101    
     21450   142.81786      284.79065     -2334.3628      6.2212417     -2328.1416     -13908.086    
     21500   153.43294      305.95799     -2334.8991      6.6836415     -2328.2155     -13662.967    
     21550   147.95367      295.03187     -2334.5011      6.4449608     -2328.0561     -12077.403    
     21600   142.91006      284.97451     -2334.228       6.225258      -2328.0027     -9591.117     
     21650   166.42644      331.8681      -2335.3145      7.2496469     -2328.0648     -14765.25     
     21700   144.59463      288.33367     -2334.2733      6.2986387     -2327.9747     -14410.513    
     21750   148.62006      296.36072     -2334.5391      6.4739894     -2328.0651     -14109.48     
     21800   153.75899      306.60817     -2334.7105      6.6978445     -2328.0127     -11653.878    
     21850   142.26291      283.68403     -2334.2143      6.1970677     -2328.0172     -13316.646    
     21900   154.12407      307.33616     -2334.5698      6.7137474     -2327.8561     -13062.169    
     21950   151.49068      302.08497     -2334.4389      6.5990355     -2327.8398     -15553.098    
     22000   154.83586      308.75554     -2334.6071      6.7447537     -2327.8624     -13518.582    
     22050   152.83534      304.76634     -2334.3973      6.6576098     -2327.7397     -15525.269    
     22100   146.06889      291.27347     -2334.2197      6.3628586     -2327.8568     -16431.417    
     22150   157.03343      313.13767     -2334.6163      6.8404812     -2327.7758     -14346.104    
     22200   152.17445      303.44846     -2334.2683      6.6288208     -2327.6394     -12952.702    
     22250   136.82583      272.84204     -2333.6637      5.9602248     -2327.7035     -13955.456    
     22300   145.4618       290.06288     -2334.0761      6.3364134     -2327.7397     -12154.574    
     22350   137.39687      273.98074     -2333.736       5.9850996     -2327.7509     -11194.903    
     22400   154.33129      307.74938     -2334.3167      6.7227742     -2327.594      -12773.723    
     22450   154.70246      308.48952     -2334.3948      6.7389425     -2327.6559     -14020.118    
     22500   156.91113      312.89379     -2334.54        6.8351537     -2327.7048     -13061.39     
     22550   146.24714      291.62891     -2334.0852      6.3706232     -2327.7146     -10897.545    
     22600   149.88618      298.88546     -2334.3164      6.5291423     -2327.7872     -14675.682    
     22650   138.33175      275.84497     -2333.7181      6.0258236     -2327.6922     -11720.889    
     22700   147.34685      293.82182     -2334.2335      6.4185272     -2327.815      -16787.048    
     22750   165.97675      330.97139     -2334.7486      7.2300582     -2327.5185     -13159.819    
     22800   144.25237      287.65117     -2333.9207      6.2837296     -2327.6369     -16082.239    
     22850   148.03626      295.19657     -2334.1961      6.4485585     -2327.7475     -14898.867    
     22900   149.93429      298.9814      -2334.2407      6.5312382     -2327.7095     -13374.129    
     22950   134.28938      267.78416     -2333.6154      5.8497354     -2327.7656     -14489.964    
     23000   129.0546       257.34557     -2333.4349      5.6217047     -2327.8132     -14405.672    
     23050   144.7598       288.66303     -2334.053       6.3058337     -2327.7471     -14279.221    
     23100   143.3466       285.84499     -2334.1445      6.2442736     -2327.9002     -12013.856    
     23150   145.67302      290.48407     -2334.2456      6.3456142     -2327.9        -14361.237    
     23200   143.99009      287.12818     -2334.3202      6.2723048     -2328.0479     -13166.402    
     23250   147.10077      293.33112     -2334.3608      6.407808      -2327.953      -9362.2472    
     23300   137.45411      274.09488     -2333.9442      5.9875929     -2327.9566     -13654.947    
     23350   145.18008      289.50111     -2334.3491      6.3241414     -2328.025      -13957.217    
     23400   130.06082      259.35205     -2333.6581      5.6655364     -2327.9926     -14979.921    
     23450   135.80986      270.81611     -2333.9988      5.9159683     -2328.0828     -14259.638    
     23500   136.18599      271.56614     -2334.0463      5.9323528     -2328.114      -14097.75     
     23550   147.60869      294.34395     -2334.5507      6.4299331     -2328.1207     -17247.565    
     23600   143.64461      286.43926     -2334.2831      6.2572554     -2328.0259     -13609.362    
     23650   140.29877      279.76737     -2334.1626      6.1115082     -2328.0511     -12528.241    
     23700   127.0426       253.33346     -2333.5934      5.5340605     -2328.0593     -14020.979    
     23750   150.73157      300.57124     -2334.6561      6.5659681     -2328.0902     -13325.687    
     23800   139.15936      277.4953      -2334.1568      6.0618749     -2328.095      -14030.188    
     23850   141.37314      281.90976     -2334.2739      6.1583086     -2328.1156     -11678.332    
     23900   137.48374      274.15397     -2334.1442      5.9888838     -2328.1553     -13661.131    
     23950   133.48566      266.18147     -2333.7997      5.8147248     -2327.985      -10982.873    
     24000   141.36201      281.88757     -2334.2199      6.1578239     -2328.0621     -15491.153    
     24050   139.72073      278.6147      -2334.3349      6.0863283     -2328.2486     -12477.357    
     24100   144.89962      288.94184     -2334.3619      6.3119243     -2328.05       -13353.604    
     24150   138.98697      277.15153     -2333.9544      6.0543654     -2327.9        -11648.809    
     24200   138.42485      276.03062     -2333.7187      6.0298791     -2327.6888     -16174.703    
     24250   153.78113      306.65231     -2334.1446      6.6988089     -2327.4458     -9789.3333    
     24300   150.0429       299.19798     -2334.2107      6.5359692     -2327.6747     -14738.27     
     24350   148.15321      295.42978     -2334.1547      6.4536531     -2327.701      -12979.346    
     24400   149.36976      297.85567     -2334.2849      6.5066465     -2327.7783     -13335.323    
     24450   130.97655      261.17809     -2333.482       5.7054262     -2327.7765     -14691.013    
     24500   152.26501      303.62904     -2334.4675      6.6327657     -2327.8347     -11073.965    
     24550   141.74473      282.65074     -2333.7655      6.1744954     -2327.591      -12290.629    
     24600   150.20706      299.52533     -2334.0669      6.5431201     -2327.5238     -12678.418    
     24650   154.22896      307.54532     -2334.1793      6.7183165     -2327.461      -12194.487    
     24700   138.38583      275.95281     -2333.6506      6.0281794     -2327.6224     -13496.158    
     24750   148.46915      296.05979     -2334.142       6.4674155     -2327.6745     -14585.634    
     24800   142.09136      283.34193     -2333.6556      6.1895945     -2327.466      -16136.717    
     24850   156.60652      312.28638     -2334.1324      6.821885      -2327.3105     -11686.66     
     24900   152.33269      303.764       -2334.015       6.6357139     -2327.3793     -12708.894    
     24950   156.26408      311.60353     -2334.2796      6.806968      -2327.4726     -14485.997    
     25000   161.30638      321.65829     -2334.5444      7.0266138     -2327.5178     -13306.431    
     25050   145.74047      290.61857     -2333.8848      6.3485524     -2327.5362     -13918.557    
     25100   161.77561      322.59396     -2334.6938      7.0470537     -2327.6467     -10753.952    
     25150   154.68484      308.45439     -2334.2647      6.7381751     -2327.5265     -14901.748    
     25200   149.95218      299.01707     -2334.063       6.5320172     -2327.5309     -16422.479    
     25250   155.64933      310.37765     -2334.4884      6.7801888     -2327.7082     -12700.596    
     25300   142.82671      284.80829     -2333.9363      6.2216269     -2327.7147     -12722.239    
     25350   148.36934      295.86076     -2334.2574      6.4630678     -2327.7943     -12097.906    
     25400   152.45626      304.01042     -2334.4069      6.6410969     -2327.7658     -11682.922    
     25450   146.54342      292.21973     -2334.0995      6.3835296     -2327.7159     -14993.031    
     25500   136.45847      272.1095      -2333.7463      5.9442223     -2327.8021     -14984.246    
     25550   141.53096      282.22445     -2333.9509      6.1651832     -2327.7857     -9594.6243    
     25600   142.20639      283.57132     -2333.8539      6.1946054     -2327.6593     -14448.106    
     25650   142.64511      284.44617     -2333.7127      6.2137164     -2327.499      -15672.322    
     25700   153.83428      306.75829     -2334.2935      6.701124      -2327.5924     -12325.597    
     25750   147.73608      294.59798     -2333.9266      6.4354825     -2327.4911     -14765.414    
     25800   153.53156      306.15465     -2334.3598      6.6879374     -2327.6718     -11912.642    
     25850   141.96103      283.08205     -2333.8502      6.1839173     -2327.6663     -14855.334    
     25900   139.31792      277.81147     -2333.768       6.0687816     -2327.6993     -14313.676    
     25950   162.23577      323.51156     -2334.7853      7.0670985     -2327.7182     -13355.76     
     26000   135.14884      269.49799     -2333.5328      5.887174      -2327.6456     -12405.657    
     26050   137.42778      274.04238     -2333.6144      5.9864461     -2327.6279     -13778.361    
     26100   157.74373      314.55407     -2334.6207      6.8714225     -2327.7493     -12694.011    
     26150   137.06777      273.32449     -2333.7662      5.9707637     -2327.7954     -12745.823    
     26200   158.05084      315.16648     -2334.6878      6.8848005     -2327.803      -11136.791    
     26250   143.80248      286.75406     -2333.9855      6.2641322     -2327.7214     -15788.088    
     26300   137.49918      274.18476     -2333.701       5.9895563     -2327.7114     -10524.454    
     26350   151.25386      301.61274     -2334.4254      6.5887195     -2327.8367     -11580.574    
     26400   148.84745      296.81415     -2334.3819      6.4838946     -2327.898      -12265.203    
     26450   139.14585      277.46836     -2333.9874      6.0612864     -2327.9261     -13139.704    
     26500   138.73706      276.65318     -2333.9991      6.043479      -2327.9557     -14277.681    
     26550   143.11331      285.3798      -2334.1992      6.2341116     -2327.9651     -12224.074    
     26600   129.13577      257.50742     -2333.6586      5.6252406     -2328.0333     -13364.066    
     26650   152.72658      304.54946     -2334.7121      6.6528722     -2328.0592     -13237.623    
     26700   146.22165      291.57808     -2334.4177      6.3695127     -2328.0482     -14144.488    
     26750   145.95007      291.03653     -2334.4297      6.3576828     -2328.0721     -14586.813    
     26800   142.87396      284.90251     -2334.3058      6.2236851     -2328.0821     -11590.527    
     26850   141.67386      282.50941     -2334.2894      6.1714081     -2328.118      -16124.576    
     26900   149.85826      298.82979     -2334.6268      6.5279261     -2328.0988     -15548.704    
     26950   139.24054      277.65716     -2334.1878      6.0654109     -2328.1224     -13434.136    
     27000   145.81317      290.76354     -2334.4955      6.3517193     -2328.1437     -14400.894    
     27050   153.15418      305.40213     -2334.7281      6.6714987     -2328.0566     -14564.911    
     27100   141.12774      281.4204      -2334.3168      6.1476187     -2328.1692     -11794.5      
     27150   147.01409      293.15828     -2334.5233      6.4040322     -2328.1192     -12574.324    
     27200   139.10169      277.38029     -2334.2147      6.0593627     -2328.1554     -12806.371    
     27250   157.63446      314.33618     -2334.9552      6.8666627     -2328.0885     -16336.532    
     27300   152.3738       303.84597     -2334.6659      6.6375045     -2328.0284     -12821.363    
     27350   149.3862       297.88847     -2334.5732      6.507363      -2328.0659     -12214.049    
     27400   136.79149      272.77356     -2333.9457      5.9587286     -2327.987      -8579.1088    
     27450   162.13353      323.30769     -2335.1764      7.062645      -2328.1138     -12665.583    
     27500   146.66993      292.472       -2334.5051      6.3890404     -2328.116      -12709.3      
     27550   153.06833      305.23092     -2334.825       6.6677586     -2328.1573     -10423.629    
     27600   148.79097      296.70152     -2334.5764      6.4814341     -2328.095      -13763.182    
     27650   152.99478      305.08426     -2334.8569      6.6645547     -2328.1924     -17593.106    
     27700   162.64531      324.32823     -2335.3161      7.0849387     -2328.2312     -12033.689    
     27750   154.85323      308.79016     -2334.9968      6.7455101     -2328.2513     -14044.794    
     27800   144.78154      288.70639     -2334.456       6.3067808     -2328.1492     -15078.236    
     27850   140.76624      280.69953     -2334.3541      6.1318714     -2328.2222     -10179.011    
     27900   147.50071      294.12862     -2334.6545      6.4252294     -2328.2293     -15598.771    
     27950   151.72801      302.55821     -2334.8595      6.6093734     -2328.2502     -12199.458    
     28000   136.26148      271.71668     -2334.1461      5.9356412     -2328.2105     -14632.023    
     28050   145.20804      289.55687     -2334.4826      6.3253595     -2328.1572     -15017.754    
     28100   164.8787       328.78178     -2335.3759      7.1822263     -2328.1937     -13937.202    
     28150   149.18786      297.49296     -2334.7092      6.4987231     -2328.2104     -12034.689    
     28200   144.90273      288.94806     -2334.576       6.31206       -2328.264      -16006.088    
     28250   156.91825      312.90799     -2335.1175      6.8354639     -2328.282      -13981.224    
     28300   152.50307      304.10375     -2334.8924      6.6431356     -2328.2493     -15355.557    
     28350   149.57193      298.25882     -2334.7771      6.5154534     -2328.2617     -15014.4      
     28400   155.12259      309.3273      -2334.8856      6.7572439     -2328.1284     -15237.312    
     28450   140.45728      280.08346     -2334.3026      6.1184132     -2328.1842     -12681.33     
     28500   147.30541      293.73918     -2334.5741      6.4167221     -2328.1574     -14524.401    
     28550   152.80875      304.71332     -2334.868       6.6564516     -2328.2115     -14962.827    
     28600   152.09237      303.28479     -2335.037       6.6252456     -2328.4117     -16162.497    
     28650   148.92711      296.973       -2334.9189      6.4873645     -2328.4315     -13230.53     
     28700   153.72246      306.53532     -2335.2404      6.6962532     -2328.5442     -13600.194    
     28750   141.70941      282.5803      -2334.7653      6.1729567     -2328.5924     -13941.223    
     28800   154.06996      307.22827     -2335.3693      6.7113906     -2328.6579     -11612.482    
     28850   152.35036      303.79925     -2335.3168      6.6364837     -2328.6804     -13464.831    
     28900   151.89452      302.89026     -2335.2531      6.6166269     -2328.6364     -14905.816    
     28950   140.87921      280.92481     -2334.7432      6.1367926     -2328.6064     -15116.53     
     29000   135.78578      270.76809     -2334.4184      5.9149193     -2328.5035     -15102.844    
     29050   157.29515      313.65956     -2335.4187      6.851882      -2328.5668     -15650.613    
     29100   151.47529      302.05427     -2335.2094      6.5983648     -2328.611      -15885.12     
     29150   145.08777      289.31704     -2335.092       6.3201204     -2328.7719     -14643.188    
     29200   134.22246      267.6507      -2334.5969      5.84682       -2328.75       -14347.778    
     29250   145.08241      289.30635     -2335.0657      6.319887      -2328.7458     -16297.32     
     29300   142.93874      285.03169     -2334.7324      6.2265072     -2328.5059     -12798.377    
     29350   143.95692      287.06202     -2334.795       6.2708596     -2328.5242     -13411.029    
     29400   151.86395      302.82929     -2335.165       6.6152952     -2328.5497     -17901.744    
     29450   148.00101      295.12628     -2335.2693      6.4470231     -2328.8223     -12785.597    
     29500   150.90143      300.90996     -2335.3705      6.5733674     -2328.7971     -15147.503    
     29550   137.38193      273.95094     -2334.7621      5.9844487     -2328.7776     -13306.741    
     29600   141.67736      282.51639     -2334.9886      6.1715604     -2328.8171     -12441.049    
     29650   144.06555      287.27863     -2335.2767      6.2755916     -2329.0011     -12702.719    
     29700   135.01677      269.23461     -2334.949       5.8814206     -2329.0675     -11364.274    
     29750   135.34492      269.88898     -2335.0157      5.8957152     -2329.12       -13905.14     
     29800   150.38239      299.87494     -2335.5927      6.5507575     -2329.042      -14942.33     
     29850   146.00691      291.14988     -2335.2327      6.3601588     -2328.8725     -15243.018    
     29900   146.96375      293.0579      -2335.3904      6.4018394     -2328.9886     -14676.353    
     29950   138.1545       275.49152     -2335.0107      6.0181025     -2328.9926     -12574.456    
     30000   141.31902      281.80183     -2335.2586      6.1559511     -2329.1026     -11815.101    
     30050   141.82973      282.82023     -2335.033       6.1781978     -2328.8548     -12766.367    
     30100   137.89123      274.96654     -2334.9953      6.0066343     -2328.9887     -15877.458    
     30150   137.42206      274.03098     -2334.9828      5.986197      -2328.9966     -14922.036    
     30200   136.79735      272.78525     -2334.9239      5.958984      -2328.9649     -18133.312    
     30250   135.99622      271.18773     -2334.9534      5.9240863     -2329.0293     -13323.051    
     30300   142.63186      284.41974     -2335.1553      6.213139      -2328.9422     -15533.949    
     30350   143.08228      285.31791     -2335.0634      6.2327596     -2328.8307     -17244.183    
     30400   139.57186      278.31786     -2334.9283      6.0798438     -2328.8485     -15313.939    
     30450   149.02912      297.1764      -2335.252       6.491808      -2328.7602     -15696.571    
     30500   139.96021      279.09225     -2334.6806      6.0967604     -2328.5839     -14163.246    
     30550   149.31629      297.74904     -2334.8782      6.5043173     -2328.3738     -12669.199    
     30600   152.52918      304.15583     -2334.9555      6.6442732     -2328.3113     -15514.21     
     30650   163.01752      325.07044     -2335.1675      7.1011522     -2328.0664     -14117.397    
     30700   149.67085      298.45608     -2334.64        6.5197624     -2328.1203     -12621.625    
     30750   157.20754      313.48486     -2335.244       6.8480657     -2328.396      -11880.428    
     30800   149.62318      298.36102     -2334.8009      6.5176859     -2328.2832     -12894.222    
     30850   138.19568      275.57363     -2333.8952      6.0198961     -2327.8753     -12028.317    
     30900   135.66023      270.51773     -2333.7589      5.9094502     -2327.8495     -11902.425    
     30950   148.31403      295.75046     -2334.0998      6.4606583     -2327.6391     -13969.541    
     31000   157.92771      314.92094     -2334.5279      6.8794367     -2327.6484     -12095.827    
     31050   158.63479      316.33091     -2334.2897      6.9102375     -2327.3794     -11748.186    
     31100   149.52751      298.17025     -2333.75        6.5135186     -2327.2365     -14409.393    
     31150   176.22731      351.41185     -2334.8061      7.6765794     -2327.1295     -15423.725    
     31200   174.77201      348.50987     -2334.4524      7.6131857     -2326.8392     -12584.39     
     31250   172.91325      344.80334     -2334.4786      7.5322167     -2326.9464     -14451.407    
     31300   154.78727      308.65865     -2333.5326      6.7426372     -2326.79       -14203.154    
     31350   166.06875      331.15485     -2334.1777      7.2340659     -2326.9437     -13247.363    
     31400   162.05885      323.15877     -2333.9744      7.0593919     -2326.915      -14917.853    
     31450   148.9408       297.0003      -2333.5277      6.4879611     -2327.0397     -14177.375    
     31500   153.2134       305.52021     -2333.6726      6.674078      -2326.9985     -14746.493    
     31550   158.75679      316.57418     -2333.8965      6.9155518     -2326.981      -13831.26     
     31600   151.27531      301.65549     -2333.4259      6.5896535     -2326.8363     -14970.106    
     31650   174.5758       348.11861     -2334.5521      7.6046386     -2326.9475     -11940.848    
     31700   176.52897      352.01339     -2334.6442      7.6897201     -2326.9545     -12950.535    
     31750   163.29888      325.6315      -2334.1629      7.1134085     -2327.0495     -14253.293    
     31800   163.95734      326.94453     -2334.2245      7.1420916     -2327.0824     -15283.096    
     31850   158.85633      316.77268     -2334.0151      6.9198879     -2327.0953     -12839.35     
     31900   163.93926      326.90847     -2334.1142      7.1413039     -2326.9729     -12962.018    
     31950   155.62261      310.32437     -2333.7101      6.7790249     -2326.9311     -14694.386    
     32000   174.79869      348.56306     -2334.7297      7.6143477     -2327.1153     -12310.262    
     32050   163.44029      325.91348     -2334.1739      7.1195684     -2327.0543     -14239.847    
     32100   158.5445       316.15087     -2334.0005      6.9063046     -2327.0942     -13185.19     
     32150   154.03846      307.16545     -2333.8413      6.7100184     -2327.1313     -12209.623    
     32200   166.15042      331.31771     -2334.284       7.2376236     -2327.0464     -15129.934    
     32250   145.23558      289.61177     -2333.2047      6.3265589     -2326.8781     -14344.371    
     32300   166.5522       332.11889     -2334.3852      7.2551254     -2327.1301     -16750.578    
     32350   165.36884      329.75917     -2334.219       7.2035774     -2327.0154     -15945.736    
     32400   169.03805      337.07587     -2334.6067      7.3634105     -2327.2433     -12940.275    
     32450   151.90401      302.90918     -2333.7982      6.6170403     -2327.1811     -17150.668    
     32500   153.76888      306.62789     -2333.9898      6.6982753     -2327.2915     -13474.068    
     32550   152.49921      304.09605     -2333.9738      6.6429674     -2327.3308     -15648.488    
     32600   170.24303      339.47871     -2334.7821      7.4159003     -2327.3662     -12163.487    
     32650   147.68976      294.50561     -2333.8021      6.4334646     -2327.3687     -13960.625    
     32700   166.53911      332.09277     -2334.6283      7.2545549     -2327.3737     -12724.732    
     32750   154.25546      307.59817     -2334.0542      6.7194711     -2327.3347     -15538.304    
     32800   158.11196      315.28835     -2334.3444      6.8874629     -2327.457      -15198.88     
     32850   151.98643      303.07353     -2334.0569      6.6206306     -2327.4363     -16665.128    
     32900   153.42157      305.93532     -2334.1337      6.6831462     -2327.4506     -13960.984    
     32950   157.74449      314.55558     -2334.3268      6.8714556     -2327.4553     -12617.041    
     33000   144.26364      287.67365     -2333.5184      6.2842207     -2327.2342     -18559.691    
     33050   160.45119      319.95297     -2334.2497      6.9893613     -2327.2604     -13735.716    
     33100   156.71055      312.49382     -2333.9403      6.8264163     -2327.1139     -14461.286    
[...]
    191100   155.53796      310.15558     -2336.2919      6.7753377     -2329.5166     -13372.535    
    191150   134.23704      267.67978     -2335.3864      5.8474553     -2329.539      -14997.786    
    191200   147.38335      293.8946      -2335.994       6.4201171     -2329.5739     -14791.528    
    191250   143.57176      286.29399     -2335.8085      6.2540819     -2329.5544     -16369.18     
    191300   156.18596      311.44775     -2336.362       6.803565      -2329.5585     -14660.329    
    191350   149.33408      297.78453     -2336.0678      6.5050924     -2329.5628     -16820.468    
    191400   149.34851      297.8133      -2336.1186      6.505721      -2329.6128     -15779.84     
    191450   155.55388      310.18733     -2336.3128      6.7760311     -2329.5367     -12279.954    
    191500   147.61137      294.34929     -2335.9775      6.4300498     -2329.5475     -16551.966    
    191550   143.11101      285.37522     -2335.768       6.2340115     -2329.534      -12463.284    
    191600   139.75304      278.67914     -2335.5978      6.0877359     -2329.5101     -13727.097    
    191650   162.96415      324.96402     -2336.7341      7.0988276     -2329.6353     -15314.239    
    191700   153.20469      305.50285     -2336.2857      6.6736989     -2329.612      -13730.506    
    191750   161.4436       321.9319      -2336.7097      7.032591      -2329.6771     -13963.334    
    191800   146.83164      292.79446     -2336.0391      6.3960845     -2329.643      -10313.376    
    191850   160.57539      320.20063     -2336.6518      6.9947714     -2329.657      -13176.851    
    191900   148.56899      296.25887     -2336.1395      6.4717644     -2329.6677     -11826.073    
    191950   152.33891      303.77641     -2336.3542      6.6359849     -2329.7182     -14867.186    
    192000   141.38106      281.92555     -2335.9086      6.1586537     -2329.75       -14390.731    
    192050   146.99962      293.12941     -2336.1396      6.4034016     -2329.7362     -17556.527    
    192100   147.87628      294.87755     -2336.1594      6.4415895     -2329.7178     -13958.581    
    192150   166.64906      332.31202     -2336.9541      7.2593444     -2329.6947     -10774.937    
    192200   160.92103      320.88986     -2336.735       7.0098276     -2329.7252     -11787.036    
    192250   154.94148      308.96614     -2336.4667      6.7493543     -2329.7173     -14475.847    
    192300   150.94163      300.99012     -2336.268       6.5751184     -2329.6929     -11154.746    
    192350   153.3918       305.87595     -2336.3573      6.6818492     -2329.6754     -12966.378    
    192400   178.91706      356.77545     -2337.4708      7.793747      -2329.6771     -12808.842    
    192450   162.77443      324.5857      -2336.5908      7.0905631     -2329.5002     -14887.931    
    192500   157.65316      314.37346     -2336.4272      6.8674771     -2329.5597     -13681.229    
    192550   132.53065      264.27709     -2335.3367      5.7731236     -2329.5636     -13656.956    
    192600   144.78223      288.70776     -2335.8096      6.3068108     -2329.5028     -14018.753    
    192650   161.71391      322.47093     -2336.5489      7.044366      -2329.5045     -15071.363    
    192700   156.55248      312.17862     -2336.3648      6.8195308     -2329.5453     -17205.873    
    192750   159.9406       318.9348      -2336.5501      6.9671195     -2329.583      -14026.945    
    192800   156.82131      312.71468     -2336.4503      6.831241      -2329.619      -15825.711    
    192850   143.07208      285.29759     -2335.8412      6.2323157     -2329.6089     -14961.17     
    192900   169.53644      338.06971     -2337.0514      7.3851208     -2329.6663     -13130.309    
    192950   156.56968      312.21292     -2336.5424      6.8202802     -2329.7221     -15991.101    
    193000   167.47094      333.95092     -2336.9516      7.2951461     -2329.6565     -12906.022    
    193050   162.84555      324.72751     -2336.6696      7.093661      -2329.5759     -15211.625    
    193100   166.73251      332.47845     -2336.6812      7.2629798     -2329.4182     -14240.949    
    193150   158.87528      316.81047     -2336.3454      6.9207135     -2329.4247     -12581.266    
    193200   158.1566       315.37737     -2336.3571      6.8894074     -2329.4677     -17629.025    
    193250   166.41066      331.83664     -2336.8501      7.2489596     -2329.6012     -15629.048    
    193300   174.56767      348.1024      -2337.202       7.6042845     -2329.5977     -17220.684    
    193350   145.11921      289.37973     -2335.9305      6.3214899     -2329.609      -18016.411    
    193400   152.58831      304.27374     -2336.2638      6.646849      -2329.6169     -10517.076    
    193450   165.79463      330.60823     -2336.8754      7.222125      -2329.6533     -17913.529    
    193500   147.08493      293.29953     -2336.0895      6.4071178     -2329.6823     -12411.693    
    193550   143.15557      285.46407     -2335.8041      6.2359524     -2329.5682     -14885.88     
    193600   172.46909      343.91765     -2337.1087      7.5128689     -2329.5958     -15885.04     
    193650   146.5859       292.30443     -2335.8465      6.3853799     -2329.4612     -16195.253    
    193700   155.77427      310.62681     -2336.238       6.7856316     -2329.4524     -15237.573    
    193750   161.67993      322.40317     -2336.5718      7.0428859     -2329.5289     -14851.695    
    193800   158.56828      316.19829     -2336.4668      6.9073403     -2329.5595     -15216.139    
    193850   152.10334      303.30666     -2336.2392      6.6257231     -2329.6135     -14928.696    
    193900   148.42644      295.97461     -2336.0553      6.4655549     -2329.5897     -13363.369    
    193950   154.08317      307.25461     -2336.3535      6.711966      -2329.6415     -14213.954    
    194000   165.11497      329.25294     -2336.7676      7.1925187     -2329.575      -12633.637    
    194050   167.67464      334.35712     -2336.8801      7.3040194     -2329.5761     -14693.486    
    194100   170.25167      339.49594     -2337.0337      7.4162767     -2329.6175     -13685.863    
    194150   161.42857      321.90193     -2336.5889      7.0319363     -2329.5569     -11558.858    
    194200   161.90532      322.85262     -2336.6363      7.0527041     -2329.5836     -12189.003    
    194250   149.44433      298.00437     -2336.17        6.5098949     -2329.6601     -16185.507    
    194300   155.84372      310.76529     -2336.4585      6.7886568     -2329.6698     -11372.192    
    194350   151.17139      301.44828     -2336.2874      6.5851271     -2329.7023     -14130.87     
    194400   152.40564      303.90948     -2336.2757      6.6388917     -2329.6368     -11563.655    
    194450   161.46302      321.97063     -2336.6931      7.0334371     -2329.6597     -12541.341    
    194500   169.69662      338.38911     -2337.1315      7.3920981     -2329.7394     -14722.747    
    194550   148.72265      296.56529     -2336.2069      6.4784583     -2329.7285     -13181.548    
    194600   149.667        298.4484      -2336.2655      6.5195947     -2329.7459     -15022.127    
    194650   159.40392      317.86462     -2336.7263      6.9437413     -2329.7826     -11323.68     
    194700   157.90352      314.87269     -2336.6976      6.8783828     -2329.8192     -13836.24     
    194750   143.96695      287.08203     -2336.11        6.2712967     -2329.8387     -14668.302    
    194800   156.2463       311.56808     -2336.6749      6.8061935     -2329.8687     -14186.351    
    194850   162.09432      323.22951     -2336.9907      7.0609371     -2329.9297     -15134.757    
    194900   151.16212      301.42978     -2336.4292      6.5847229     -2329.8445     -14506.679    
    194950   144.47285      288.09084     -2336.1637      6.2933342     -2329.8704     -14420.065    
    195000   157.59574      314.25895     -2336.7707      6.8649756     -2329.9058     -16758.668    
    195050   139.60919      278.3923      -2335.965       6.0814698     -2329.8835     -15846.608    
    195100   158.19199      315.44793     -2336.8059      6.8909488     -2329.915      -17319.466    
    195150   160.03732      319.12767     -2336.954       6.9713327     -2329.9826     -14457.656    
    195200   156.71417      312.50103     -2336.8443      6.8265739     -2330.0177     -15078.86     
    195250   148.18408      295.49133     -2336.4743      6.4549977     -2330.0193     -14353.802    
    195300   153.54482      306.18108     -2336.7259      6.6885149     -2330.0374     -12802.009    
    195350   165.17537      329.37337     -2337.2593      7.1951497     -2330.0642     -13964.472    
    195400   149.9919       299.09628     -2336.5933      6.5337477     -2330.0595     -13667.607    
    195450   151.80588      302.7135      -2336.6785      6.6127657     -2330.0657     -14336.645    
    195500   153.79877      306.68748     -2336.8122      6.6995772     -2330.1126     -15110.655    
    195550   147.03553      293.20103     -2336.4442      6.4049661     -2330.0393     -16593.599    
    195600   148.34306      295.80835     -2336.522       6.4619228     -2330.0601     -15534.444    
    195650   142.92537      285.00503     -2336.2279      6.2259248     -2330.002      -15749.139    
    195700   156.65707      312.38718     -2336.8475      6.8240868     -2330.0235     -15896.218    
    195750   142.84073      284.83624     -2336.2663      6.2222375     -2330.044      -13306.728    
    195800   162.71602      324.46923     -2337.1878      7.0880188     -2330.0998     -13569.501    
    195850   155.46066      310.00144     -2336.8375      6.7719705     -2330.0655     -15778.574    
    195900   153.13776      305.36938     -2336.762       6.6707832     -2330.0912     -11658.342    
    195950   143.29318      285.73848     -2336.3608      6.2419469     -2330.1188     -16816.146    
    196000   154.25508      307.59741     -2336.8728      6.7194545     -2330.1533     -15629.541    
    196050   168.09549      335.19634     -2337.4286      7.3223522     -2330.1063     -14629.981    
    196100   143.32935      285.8106      -2336.3749      6.2435223     -2330.1314     -15976.843    
    196150   151.25678      301.61856     -2336.7067      6.5888467     -2330.1179     -15298.185    
    196200   146.76212      292.65583     -2336.5231      6.3930563     -2330.1301     -14830.318    
    196250   153.49078      306.07332     -2336.8036      6.6861609     -2330.1174     -14832.189    
    196300   137.48479      274.15607     -2336.1259      5.9889295     -2330.1369     -12786.924    
    196350   160.53026      320.11065     -2337.0883      6.9928057     -2330.0955     -13577.424    
    196400   149.53607      298.18732     -2336.6985      6.5138913     -2330.1846     -16554.41     
    196450   157.66788      314.4028      -2337.0595      6.8681181     -2330.1914     -13083.437    
    196500   156.94         312.95136     -2336.9838      6.8364114     -2330.1474     -11796.827    
    196550   159.92683      318.90735     -2337.1492      6.9665197     -2330.1827     -13860.145    
    196600   166.62259      332.25924     -2337.4728      7.2581914     -2330.2146     -14355.222    
    196650   165.15901      329.34075     -2337.3537      7.1944371     -2330.1592     -14318.909    
    196700   144.0399       287.22749     -2336.4553      6.2744742     -2330.1808     -13795.803    
    196750   145.6074       290.35321     -2336.5253      6.3427556     -2330.1826     -15092.075    
    196800   165.82768      330.67414     -2337.4933      7.2235648     -2330.2697     -16976.597    
    196850   148.05239      295.22873     -2336.7181      6.4492612     -2330.2689     -16416.038    
    196900   141.27698      281.71801     -2336.3752      6.1541198     -2330.2211     -11879.206    
    196950   147.19128      293.51161     -2336.6729      6.4117508     -2330.2611     -15412.398    
    197000   139.12457      277.42592     -2336.2533      6.0603594     -2330.193      -16611.378    
    197050   154.8619       308.80745     -2337.0064      6.7458878     -2330.2605     -11069.717    
    197100   159.53124      318.11851     -2337.1691      6.9492877     -2330.2198     -14637.011    
    197150   158.44815      315.95873     -2337.1521      6.9021073     -2330.25       -16016.952    
    197200   140.58287      280.33389     -2336.404       6.123884      -2330.2801     -13863.132    
    197250   139.98013      279.13198     -2336.4283      6.0976283     -2330.3307     -16288.351    
    197300   145.247        289.63455     -2336.5592      6.3270564     -2330.2321     -14291.271    
    197350   147.56612      294.25907     -2336.5444      6.428079      -2330.1163     -16537.429    
    197400   161.30389      321.65333     -2337.1893      7.0265055     -2330.1628     -13618.542    
    197450   152.95113      304.99723     -2336.8837      6.6626536     -2330.221      -14099.407    
    197500   150.7459       300.59981     -2336.7268      6.5665922     -2330.1602     -14143.789    
    197550   150.81066      300.72895     -2336.6356      6.5694131     -2330.0662     -15151.142    
    197600   154.80079      308.6856      -2336.789       6.743226      -2330.0458     -15039.027    
    197650   143.8793       286.90724     -2336.3158      6.2674784     -2330.0484     -12645.933    
    197700   151.11336      301.33257     -2336.5861      6.5825993     -2330.0035     -13941.347    
    197750   154.32377      307.73438     -2336.5215      6.7224465     -2329.7991     -13417.255    
    197800   155.68298      310.44477     -2336.7437      6.7816549     -2329.9621     -16105.967    
    197850   155.22708      309.53565     -2336.6846      6.7617953     -2329.9228     -14512.718    
    197900   152.83506      304.76576     -2336.6559      6.6575972     -2329.9983     -14031.277    
    197950   157.37273      313.81427     -2336.7747      6.8552615     -2329.9194     -14538.145    
    198000   155.04479      309.17216     -2336.7464      6.753855      -2329.9925     -12284.217    
    198050   147.91398      294.95272     -2336.3343      6.4432317     -2329.8911     -15034.851    
    198100   156.41304      311.90056     -2336.7369      6.8134566     -2329.9234     -12658.511    
    198150   133.03702      265.28685     -2335.7334      5.7951818     -2329.9382     -13933.421    
    198200   145.87152      290.8799      -2336.3512      6.3542611     -2329.997      -17849.347    
    198250   158.25272      315.56903     -2336.9423      6.8935944     -2330.0487     -14913.437    
    198300   133.58549      266.38054     -2335.8408      5.8190734     -2330.0217     -14049.814    
    198350   156.24963      311.5747      -2336.9153      6.8063383     -2330.109      -12689.692    
    198400   157.09455      313.25954     -2336.8821      6.8431436     -2330.039      -17118.156    
    198450   149.26693      297.65063     -2336.5139      6.5021675     -2330.0117     -14918.366    
    198500   144.30104      287.74822     -2336.3418      6.2858496     -2330.0559     -15232.784    
    198550   137.84742      274.87917     -2336.04        6.0047257     -2330.0353     -17218.114    
    198600   147.91051      294.94581     -2336.4769      6.4430807     -2330.0338     -13176.18     
    198650   154.54697      308.17946     -2336.7262      6.7321693     -2329.9941     -13228.034    
    198700   153.24755      305.58832     -2336.8832      6.6755659     -2330.2077     -14220.458    
    198750   160.503        320.05628     -2337.0709      6.991618      -2330.0793     -17826.739    
    198800   162.47653      323.99166     -2337.1226      7.0775864     -2330.045      -10542.605    
    198850   161.10871      321.2641      -2337.0171      7.018003      -2329.9991     -12557.641    
    198900   146.37567      291.88521     -2336.3161      6.376222      -2329.9399     -15106.082    
    198950   154.82567      308.7352      -2336.6403      6.7443096     -2329.896      -16942.96     
    199000   162.88125      324.7987      -2336.9657      7.0952161     -2329.8705     -14737.655    
    199050   146.85892      292.84885     -2336.3377      6.3972727     -2329.9404     -14906.431    
    199100   152.55215      304.20162     -2336.5847      6.6452736     -2329.9394     -15285.386    
    199150   164.15777      327.34419     -2337.1113      7.1508223     -2329.9604     -14806.5      
    199200   166.53161      332.07783     -2337.2266      7.2542283     -2329.9724     -14197.157    
    199250   151.93069      302.96238     -2336.591       6.6182025     -2329.9728     -17805.735    
    199300   157.02797      313.12677     -2336.8016      6.8402432     -2329.9613     -13960.349    
    199350   154.95284      308.98881     -2336.6899      6.7498496     -2329.94       -16270.531    
    199400   161.93463      322.91107     -2336.9553      7.0539809     -2329.9013     -13994.314    
    199450   154.63655      308.35808     -2336.6219      6.7360714     -2329.8858     -13690.781    
    199500   165.28817      329.59831     -2337.1216      7.2000634     -2329.9215     -14698.811    
    199550   163.06302      325.16117     -2337.0823      7.1031341     -2329.9792     -12872.804    
    199600   152.94453      304.98406     -2336.6069      6.662366      -2329.9445     -13685.014    
    199650   158.56336      316.18848     -2336.8002      6.9071262     -2329.893      -14190.118    
    199700   163.33057      325.69468     -2337.078       7.1147888     -2329.9632     -12086.962    
    199750   155.77694      310.63212     -2336.6901      6.7857477     -2329.9044     -13730.18     
    199800   159.32857      317.71436     -2336.9641      6.9404589     -2330.0236     -13726.056    
    199850   159.20682      317.47159     -2336.9124      6.9351557     -2329.9772     -9806.7164    
    199900   151.05784      301.22186     -2336.5295      6.5801807     -2329.9493     -15401.884    
    199950   151.70444      302.51122     -2336.5108      6.6083469     -2329.9025     -13908.713    
    200000   155.88772      310.85303     -2336.7428      6.7905735     -2329.9523     -11999.532    
colvars: Saving collective variables state to "out.colvars.state".
Loop time of 978.459 on 4 procs for 200000 steps with 338 atoms

Performance: 8.830 ns/day, 2.718 hours/ns, 204.403 timesteps/s, 69.088 katom-step/s
138.6% CPU use with 4 MPI tasks x 1 OpenMP threads

MPI task timing breakdown:
Section |  min time  |  avg time  |  max time  |%varavg| %total
---------------------------------------------------------------
Pair    | 810.58     | 872.36     | 930.12     | 194.5 | 89.16
Neigh   | 0.26272    | 2.6391     | 4.5351     |  98.2 |  0.27
Comm    | 17.352     | 72.471     | 130.96     | 638.8 |  7.41
Output  | 4.3529     | 5.3445     | 6.4262     |  41.1 |  0.55
Modify  | 18.501     | 22.856     | 28.155     |  90.8 |  2.34
Other   |            | 2.784      |            |       |  0.28

Nlocal:           84.5 ave         120 max           6 min
Histogram: 1 0 0 0 0 0 0 1 0 2
Nghost:        1130.25 ave        1645 max         660 min
Histogram: 1 0 0 1 0 1 0 0 0 1
Neighs:              0 ave           0 max           0 min
Histogram: 4 0 0 0 0 0 0 0 0 0
FullNghs:      15326.5 ave       24378 max         586 min
Histogram: 1 0 0 0 0 1 0 0 0 2

Total # of neighbors = 61306
Ave neighs/atom = 181.3787
Neighbor list builds = 4606
Dangerous builds = 0
System init for write_data ...
Generated 0 of 6 mixed pair_coeff terms from geometric mixing rule

CITE-CITE-CITE-CITE-CITE-CITE-CITE-CITE-CITE-CITE-CITE-CITE-CITE

Your simulation uses code contributions which should be cited:
- Colvars module (Fiorin2013, plus other works listed for specific features)
The log file lists these citations in BibTeX format.

CITE-CITE-CITE-CITE-CITE-CITE-CITE-CITE-CITE-CITE-CITE-CITE-CITE

Total wall time: 0:16:43
