LAMMPS (2 Aug 2023)
OMP_NUM_THREADS environment is not set. Defaulting to 1 thread. (src/comm.cpp:98)
  using 1 OpenMP thread(s) per MPI task
Loaded 1 plugins from /work/home/baoergen22b/apprepo/deepmd/v2.2.9-dtk23.10/app/lib/deepmd_lmp
package gpu 4
# system
units        metal
dimension    3
atom_style   atomic
boundary     p p f

# 设置原子映射
atom_modify map array

# initial stucture
read_data POSCAR.lmp
Reading data file ...
  orthogonal box = (0 0 0) to (11.328 12.015 32)
  1 by 1 by 4 MPI processor grid
  reading atoms ...
  339 atoms
  read_data CPU = 0.037 seconds
mass      1 55.845
mass      2 15.999
mass      3 1.008
mass      4  35.450

# potential
pair_style deepmd graph-compress.pb
Summary of lammps deepmd module ...
  >>> Info of deepmd-kit:
  installed to:       /work/home/wys974137909/shangcheng/deepmd-kit/20240715/deepmd-kit_v2.2.9/install
  source:             v2.2.9
  source branch:      HEAD
  source commit:      be43748
  source commit at:   2024-02-04 13:44:12 +0800
  support model ver.: 1.1 
  build variant:      rocm
  build with tf inc:  /work/home/wys974137909/shangcheng/miniconda3/envs/deepmd-kit-v2.2.9/lib/python3.8/site-packages/tensorflow/include;/work/home/wys974137909/shangcheng/miniconda3/envs/deepmd-kit-v2.2.9/lib/python3.8/site-packages/tensorflow/include
  build with tf lib:  /work/home/wys974137909/shangcheng/miniconda3/envs/deepmd-kit-v2.2.9/lib/python3.8/site-packages/tensorflow/lib/libtensorflow_cc.so
  set tf intra_op_parallelism_threads: 0
  set tf inter_op_parallelism_threads: 0
  >>> Info of lammps module:
  use deepmd-kit at:  /work/home/wys974137909/shangcheng/deepmd-kit/20240715/deepmd-kit_v2.2.9/install
  source:             v2.2.9
  source branch:      HEAD
  source commit:      be43748
  source commit at:   2024-02-04 13:44:12 +0800
  build float prec:   double
  build with tf inc:  /work/home/wys974137909/shangcheng/miniconda3/envs/deepmd-kit-v2.2.9/lib/python3.8/site-packages/tensorflow/include;/work/home/wys974137909/shangcheng/miniconda3/envs/deepmd-kit-v2.2.9/lib/python3.8/site-packages/tensorflow/include
  build with tf lib:  /work/home/wys974137909/shangcheng/miniconda3/envs/deepmd-kit-v2.2.9/lib/python3.8/site-packages/tensorflow/lib/libtensorflow_cc.so
pair_coeff * *

# 固定原子受力、速度为 0
group fixed id 1:168
168 atoms in group fixed
group mobile subtract all fixed
171 atoms in group mobile
fix freeze_fixed fixed setforce 0.0 0.0 0.0
velocity fixed set 0 0 0

# 在z=27处添加硬性反射墙
fix wall1 mobile wall/reflect zhi 27.2

# 计算mobile组的温度
compute mTemp mobile temp
thermo 50
thermo_style custom step temp c_mTemp pe ke etotal press
velocity mobile  create 298.15 12345 mom yes rot yes

#fix ensemble mobile  nvt temp 298.15 298.15 1
#timestep 0.0005
#run 15000
#unfix ensemble        # 结束预平衡的NVT

fix ensemble mobile  nvt temp 298.15 298.15 1
fix meta  all colvars pmf.in tstat ensemble
timestep 0.0005
dump trace all custom 10 md.lammpstrj id type x y z
run 200000

CITE-CITE-CITE-CITE-CITE-CITE-CITE-CITE-CITE-CITE-CITE-CITE-CITE

Your simulation uses code contributions which should be cited:

- GPU package (short-range, long-range and three-body potentials): doi:10.1016/j.cpc.2010.12.021, doi:10.1016/j.cpc.2011.10.012, doi:10.1016/j.cpc.2013.08.002, doi:10.1016/j.commatsci.2014.10.068, doi:10.1016/j.cpc.2016.10.020, doi:10.3233/APC200086

@Article{Brown11,
 author = {W. M. Brown and P. Wang and S. J. Plimpton and A. N. Tharrington},
 title = {Implementing Molecular Dynamics on Hybrid High Performance Computers---Short Range Forces},
 journal = {Comput.\ Phys.\ Commun.},
 year =    2011,
 volume =  182,
 pages =   {898--911},
 doi =     {10.1016/j.cpc.2010.12.021}
}

@Article{Brown12,
 author = {W. M. Brown and A. Kohlmeyer and S. J. Plimpton and A. N. Tharrington},
 title = {Implementing Molecular Dynamics on Hybrid High Performance Computers - Particle-Particle Particle-Mesh},
 journal = {Comput.\ Phys.\ Commun.},
 year =    2012,
 volume =  183,
 doi =     {10.1016/j.cpc.2011.10.012},
 pages =   {449--459}
}

@Article{Brown13,
 author = {W. M. Brown and Y. Masako},
 title = {Implementing Molecular Dynamics on Hybrid High Performance Computers---Three-Body Potentials},
 journal = {Comput.\ Phys.\ Commun.},
 year =    2013,
 volume =  184,
 pages =   {2785--2793},
 doi =     {10.1016/j.cpc.2013.08.002},
}

@Article{Trung15,
 author = {T. D. Nguyen and S. J. Plimpton},
 title = {Accelerating Dissipative Particle Dynamics Simulations for Soft Matter Systems},
 journal = {Comput.\ Mater.\ Sci.},
 year =    2015,
 doi =     {10.1016/j.commatsci.2014.10.068},
 volume =  100,
 pages =   {173--180}
}

@Article{Trung17,
 author = {T. D. Nguyen},
 title = {{GPU}-Accelerated {T}ersoff Potentials for Massively Parallel
    Molecular Dynamics Simulations},
 journal = {Comput.\ Phys.\ Commun.},
 year =    2017,
 doi =     {10.1016/j.cpc.2016.10.020},
 volume =  212,
 pages =   {113--122}
}

@inproceedings{Nikolskiy19,
 author = {V. Nikolskiy and V. Stegailov},
 title = {{GPU} Acceleration of Four-Site Water Models in {LAMMPS}},
 booktitle = {Proceedings of the International Conference on Parallel
    Computing (ParCo 2019), Prague, Czech Republic},
 doi =     {10.3233/APC200086},
 year =    2019
}

- USER-DEEPMD package:

@article{Wang_ComputPhysCommun_2018_v228_p178,
  author = {Wang, Han and Zhang, Linfeng and Han, Jiequn and E, Weinan},
  doi = {10.1016/j.cpc.2018.03.016},
  url = {https://doi.org/10.1016/j.cpc.2018.03.016},
  year = 2018,
  month = {jul},
  publisher = {Elsevier {BV}},
  volume = 228,
  journal = {Comput. Phys. Commun.},
  title = {{DeePMD-kit: A deep learning package for many-body potential energy representation and molecular dynamics}},
  pages = {178--184}
}
@misc{Zeng_JChemPhys_2023_v159_p054801,
  title  = {{DeePMD-kit v2: A software package for deep potential models}},
  author =   {Jinzhe Zeng and Duo Zhang and Denghui Lu and Pinghui Mo and Zeyu Li
         and Yixiao Chen and Mari{\'a}n Rynik and Li'ang Huang and Ziyao Li and 
         Shaochen Shi and Yingze Wang and Haotian Ye and Ping Tuo and Jiabin
         Yang and Ye Ding and Yifan Li and Davide Tisi and Qiyu Zeng and Han 
         Bao and Yu Xia and Jiameng Huang and Koki Muraoka and Yibo Wang and 
         Junhan Chang and Fengbo Yuan and Sigbj{\o}rn L{\o}land Bore and Chun
         Cai and Yinnian Lin and Bo Wang and Jiayan Xu and Jia-Xin Zhu and 
         Chenxing Luo and Yuzhi Zhang and Rhys E A Goodall and Wenshuo Liang
         and Anurag Kumar Singh and Sikai Yao and Jingchao Zhang and Renata
         Wentzcovitch and Jiequn Han and Jie Liu and Weile Jia and Darrin M
         York and Weinan E and Roberto Car and Linfeng Zhang and Han Wang},
  journal =  {J. Chem. Phys.},
  volume =   159,
  issue =    5,  
  year =    2023,
  pages  =   054801,
  doi =      {10.1063/5.0155600},
}

CITE-CITE-CITE-CITE-CITE-CITE-CITE-CITE-CITE-CITE-CITE-CITE-CITE

Generated 0 of 6 mixed pair_coeff terms from geometric mixing rule
Neighbor list info ...
  update: every = 1 steps, delay = 0 steps, check = yes
  max neighbors/atom: 2000, page size: 100000
  master list distance cutoff = 8
  ghost atom cutoff = 8
  binsize = 4, bins = 3 4 8
  1 neighbor lists, perpetual/occasional/extra = 1 0 0
  (1) pair deepmd, perpetual
      attributes: full, newton on
      pair build: full/bin/atomonly
      stencil: full/bin/3d
      bin: standard
colvars: Creating proxy instance
colvars: ----------------------------------------------------------------------
colvars: Initializing the collective variables module, version 2023-05-01.
colvars: Please cite Fiorin et al, Mol Phys 2013:
colvars:   https://doi.org/10.1080/00268976.2013.813594
colvars: as well as all other papers listed below for individual features used.
colvars: This version was built with the C++11 standard or higher.
colvars: Using LAMMPS interface, version "2023-04-12".
colvars: ----------------------------------------------------------------------
colvars: Reading new configuration from file "pmf.in":
colvars: # units = "" [default]
colvars: # smp = on [default]
colvars: # colvarsTrajFrequency = 100 [default]
colvars: # colvarsRestartFrequency = 0 [default]
colvars: # scriptedColvarForces = off [default]
colvars: # scriptingAfterBiases = off [default]
colvars: ----------------------------------------------------------------------
colvars:   Initializing a new collective variable.
colvars:   # name = "d"
colvars:   Initializing a new "distance" component.
colvars:     # name = "" [default]
colvars:     # componentCoeff = 1 [default]
colvars:     # componentExp = 1 [default]
colvars:     # period = 0 [default]
colvars:     # wrapAround = 0 [default]
colvars:     # forceNoPBC = off [default]
colvars:     # scalable = on [default]
colvars:       Initializing atom group "group1".
colvars:       # name = "" [default]
colvars:       # centerToOrigin = off [default]
colvars:       # centerToReference = off [default]
colvars:       # rotateToReference = off [default]
colvars:       # atomsOfGroup = "" [default]
colvars:       # indexGroup = "" [default]
colvars:       # psfSegID =  [default]
colvars:       # atomsFile = "" [default]
colvars:       # dummyAtom = ( 0 , 0 , 0 ) [default]
colvars:       # enableFitGradients = on [default]
colvars:       # printAtomIDs = off [default]
colvars:       Atom group "group1" defined with 1 atoms requested.
colvars:       Initializing atom group "group2".
colvars:       # name = "" [default]
colvars:       # centerToOrigin = off [default]
colvars:       # centerToReference = off [default]
colvars:       # rotateToReference = off [default]
colvars:       # atomsOfGroup = "" [default]
colvars:       # indexGroup = "" [default]
colvars:       # psfSegID =  [default]
colvars:       # atomsFile = "" [default]
colvars:       # dummyAtom = ( 0 , 0 , 0 ) [default]
colvars:       # enableFitGradients = on [default]
colvars:       # printAtomIDs = off [default]
colvars:       Atom group "group2" defined with 1 atoms requested.
colvars:     # oneSiteSystemForce = off [default]
colvars:     # oneSiteTotalForce = off [default]
colvars:   All components initialized.
colvars:   # timeStepFactor = 1 [default]
colvars:   # width = 0.02
colvars:   # lowerBoundary = 0.5
colvars:   # upperBoundary = 2.2
colvars:   # hardLowerBoundary = on
colvars:   # hardUpperBoundary = on
colvars:   # expandBoundaries = off [default]
colvars:   # extendedLagrangian = off [default]
colvars:   # outputValue = on [default]
colvars:   # outputVelocity = off [default]
colvars:   # outputTotalForce = on
colvars:   # outputAppliedForce = on
colvars:   # subtractAppliedForce = off [default]
colvars:   # runAve = off [default]
colvars:   # corrFunc = off [default]
colvars: ----------------------------------------------------------------------
colvars: Collective variables initialized, 1 in total.
colvars: ----------------------------------------------------------------------
colvars:   Initializing a new "metadynamics" instance.
colvars:   # name = "metadynamics1" [default]
colvars:   # colvars = { d }
colvars:   # stepZeroData = off [default]
colvars:   # outputEnergy = off [default]
colvars:   # outputFreq = 0 [default]
colvars:   # timeStepFactor = 1 [default]
colvars:   # writeTISamples = on
colvars:   # writeTIPMF = on
colvars:   # hillWeight = 0.12
colvars:   # newHillFrequency = 500
colvars:   # gaussianSigmas =  [default]
colvars:   # hillWidth = 1
colvars:   Half-widths of the Gaussian hills (sigma's):
colvars:   d: 0.01
colvars:   # multipleReplicas = off [default]
colvars:   # useGrids = on [default]
colvars:   # gridsUpdateFrequency = 500 [default]
colvars:   # rebinGrids = off [default]
colvars:   # writeFreeEnergyFile = on [default]
colvars:   # keepHills = off [default]
colvars:   # keepFreeEnergyFiles = off [default]
colvars:   # writeHillsTrajectory = off [default]
colvars:   # wellTempered = off [default]
colvars:   # biasTemperature = 800
colvars:   # ebMeta = off [default]
colvars: ----------------------------------------------------------------------
colvars: Collective variables biases initialized, 1 in total.
colvars: ----------------------------------------------------------------------
colvars: Collective variables module (re)initialized.
colvars: ----------------------------------------------------------------------
colvars: Re-initialized atom group for variable "d":0/0. 1 atoms: total mass = 1.008, total charge = 4.6663e-310.
colvars: Re-initialized atom group for variable "d":0/1. 1 atoms: total mass = 1.008, total charge = 5.83367e-310.
colvars: The restart output state file will be "rest.colvars.state".
colvars: The final output state file will be "out.colvars.state".
Per MPI rank memory allocation (min/avg/max) = 3.124 | 3.146 | 3.16 Mbytes
   Step          Temp         c_mTemp         PotEng         KinEng         TotEng         Press     
         0   149.9571       298.15        -2247.8234      6.5516151     -2241.2718     -14783.352    
        50   130.59388      259.65136     -2246.9748      5.7056372     -2241.2691     -14750.29     
       100   136.00624      270.4124      -2247.2119      5.9421028     -2241.2698     -12293.107    
       150   139.24855      276.85889     -2247.3517      6.0837594     -2241.2679     -12463.858    
       200   139.16439      276.69154     -2247.3434      6.0800821     -2241.2633     -11075.272    
       250   143.05921      284.43537     -2247.5105      6.2502468     -2241.2602     -15547.657    
       300   149.27765      296.79909     -2247.7879      6.5219298     -2241.2659     -11860.766    
       350   142.11711      282.56225     -2247.4722      6.2090865     -2241.2631     -13287.112    
       400   129.52687      257.52989     -2246.9093      5.6590198     -2241.2503     -13085.54     
       450   142.19171      282.71058     -2247.4635      6.2123457     -2241.2512     -12825.463    
       500   144.32647      286.95498     -2247.5683      6.3056132     -2241.2626     -11134.232    
       550   135.33594      269.07968     -2246.9805      5.9128174     -2241.0677     -14127.134    
       600   142.17596      282.67927     -2247.2731      6.2116577     -2241.0615     -15303.98     
       650   149.53459      297.30995     -2247.5913      6.5331555     -2241.0581     -14432.328    
       700   139.52795      277.41439     -2247.1478      6.0959661     -2241.0518     -11243.746    
       750   146.94218      292.15562     -2247.4706      6.4198933     -2241.0507     -13355.466    
       800   154.98707      308.15076     -2247.8158      6.771374      -2241.0445     -14846.205    
       850   151.61358      301.44347     -2247.6614      6.6239866     -2241.0374     -12994.099    
       900   133.00955      264.45429     -2246.8344      5.8111779     -2241.0232     -14982.748    
       950   138.48719      275.34511     -2247.0675      6.0504954     -2241.017      -13292.796    
      1000   142.17934      282.68598     -2247.2256      6.2118051     -2241.0138     -13954.511    
      1050   139.83816      278.03116     -2247.1076      6.1095191     -2240.998      -13996.545    
      1100   145.27843      288.8477      -2247.3437      6.3472043     -2240.9965     -13697.566    
      1150   130.39365      259.25325     -2246.6755      5.6968892     -2240.9786     -11588.305    
      1200   122.32859      243.21802     -2246.3127      5.3445275     -2240.9681     -11834.254    
      1250   155.97848      310.12192     -2247.7811      6.8146886     -2240.9664     -13317.845    
      1300   155.66928      309.50716     -2247.7568      6.80118       -2240.9556     -12261.328    
      1350   152.32519      302.85831     -2247.5983      6.6550766     -2240.9432     -11379.983    
      1400   152.01241      302.23645     -2247.574       6.6414116     -2240.9326     -12853.823    
      1450   140.77632      279.89644     -2247.0693      6.1505072     -2240.9188     -14359.577    
      1500   147.79241      293.84608     -2247.2544      6.4570399     -2240.7973     -14286.903    
      1550   153.78537      305.7615      -2247.5034      6.7188719     -2240.7846     -11533.599    
      1600   139.19405      276.75053     -2246.8433      6.0813782     -2240.7619     -13507.524    
      1650   152.1045       302.41953     -2247.3944      6.6454347     -2240.7489     -16328.644    
      1700   143.13552      284.5871      -2246.99        6.2535808     -2240.7364     -14114.932    
      1750   136.8606       272.11107     -2246.7068      5.9794298     -2240.7273     -12259.826    
      1800   152.2434       302.69571     -2247.3687      6.6515036     -2240.7172     -12776.325    
      1850   141.88607      282.10288     -2246.8943      6.1989921     -2240.6953     -15163.271    
      1900   149.28464      296.813       -2247.2045      6.5222355     -2240.6823     -14719.995    
      1950   150.20525      298.64338     -2247.2247      6.5624568     -2240.6622     -10111.265    
      2000   145.21189      288.71541     -2246.987       6.3442974     -2240.6427     -13562.011    
      2050   154.94043      308.05802     -2247.4014      6.7693362     -2240.632      -13414.196    
      2100   155.68922      309.54681     -2247.4074      6.8020511     -2240.6053     -16185.096    
      2150   156.90371      311.96148     -2247.4477      6.8551117     -2240.5926     -13107.008    
      2200   153.879        305.94767     -2247.293       6.7229627     -2240.57       -10882.924    
      2250   160.57768      319.26621     -2247.5707      7.0156273     -2240.5551     -11667.012    
      2300   149.7965       297.83068     -2247.0799      6.5445984     -2240.5353     -12240.814    
      2350   147.85717      293.97485     -2246.9755      6.4598694     -2240.5156     -13388.063    
      2400   139.8357       278.02628     -2246.6041      6.109412      -2240.4947     -12394.903    
      2450   143.15776      284.6313      -2246.7256      6.2545522     -2240.4711     -14435.031    
      2500   153.2669       304.73066     -2247.1497      6.69622       -2240.4535     -14797.757    
      2550   168.363        334.74526     -2247.7892      7.3557676     -2240.4335     -11221.312    
      2600   165.34898      328.75267     -2247.6417      7.224085      -2240.4176     -10380.229    
      2650   152.54046      303.28632     -2247.058       6.6644817     -2240.3935     -12766.523    
      2700   152.77142      303.74553     -2247.0467      6.6745725     -2240.3721     -15285.456    
      2750   135.39051      269.18819     -2246.2616      5.9152018     -2240.3464     -10056.912    
      2800   135.16292      268.73568     -2246.2327      5.9052582     -2240.3275     -14881.395    
      2850   154.50808      307.19842     -2247.064       6.7504471     -2240.3136     -13409.459    
      2900   144.57754      287.45417     -2246.6087      6.3165826     -2240.2922     -14216.362    
      2950   157.8619       313.8666      -2247.1666      6.8969751     -2240.2696     -12651.889    
      3000   158.12808      314.39582     -2247.1494      6.9086045     -2240.2408     -12951.951    
      3050   144.94959      288.1939      -2246.5447      6.3328374     -2240.2119     -12874.615    
      3100   155.17035      308.51517     -2246.9702      6.7793816     -2240.1908     -11802.462    
      3150   144.46516      287.23072     -2246.4751      6.3116725     -2240.1634     -13406.983    
      3200   146.4026       291.08281     -2246.5406      6.396319      -2240.1443     -12425.393    
      3250   152.35985      302.92723     -2246.7786      6.656591      -2240.122      -14232.66     
      3300   151.24791      300.71643     -2246.7042      6.6080104     -2240.0962     -12707.586    
      3350   156.07184      310.30754     -2246.8869      6.8187676     -2240.0681     -14013.951    
      3400   158.47512      315.08582     -2246.9672      6.9237666     -2240.0435     -12969.433    
      3450   156.26859      310.69872     -2246.8446      6.8273635     -2240.0172     -13856.518    
      3500   159.44471      317.01361     -2246.955       6.9661283     -2239.9888     -12165.986    
      3550   150.52145      299.27205     -2246.5326      6.5762713     -2239.9564     -12537.239    
      3600   155.80778      309.78253     -2246.7389      6.8072308     -2239.9316     -11886.282    
      3650   162.72607      323.53772     -2247.0196      7.1094906     -2239.9101     -13153.395    
      3700   163.829        325.73061     -2247.0337      7.1576775     -2239.876      -12764.568    
      3750   156.50681      311.17237     -2246.6933      6.8377715     -2239.8555     -13238.397    
      3800   152.96552      304.13144     -2246.5136      6.6830525     -2239.8306     -12695.324    
      3850   153.85348      305.89692     -2246.5245      6.7218477     -2239.8027     -12372.173    
      3900   163.01341      324.10901     -2246.9065      7.1220441     -2239.7845     -14504.929    
      3950   154.98633      308.14929     -2246.5314      6.7713417     -2239.76       -14095.705    
      4000   164.9483       327.95604     -2246.9475      7.2065797     -2239.7409     -11576.257    
      4050   158.54605      315.22686     -2246.6429      6.9268659     -2239.7161     -17188.23     
      4100   155.98586      310.13659     -2246.5123      6.815011      -2239.6973     -11576.684    
      4150   150.69513      299.61737     -2246.2608      6.5838595     -2239.6769     -15450.324    
      4200   152.67791      303.55961     -2246.324       6.670487      -2239.6536     -13782.233    
      4250   155.41628      309.00412     -2246.4196      6.7901261     -2239.6295     -14764.399    
      4300   153.88488      305.95936     -2246.3419      6.7232196     -2239.6187     -13509.048    
      4350   150.90316      300.03099     -2246.1885      6.5929484     -2239.5955     -10259.466    
      4400   159.033        316.19503     -2246.5239      6.9481406     -2239.5757     -16305.893    
      4450   152.47477      303.15572     -2246.2107      6.6616119     -2239.5491     -14199.366    
      4500   161.06616      320.23742     -2246.5716      7.036969      -2239.5346     -14298.405    
      4550   146.23561      290.75081     -2245.898       6.3890236     -2239.509      -11569.7      
      4600   167.49176      333.01303     -2246.8107      7.317703      -2239.493      -15373.42     
      4650   168.22681      334.47448     -2246.8261      7.3498174     -2239.4763     -12378.667    
      4700   159.61531      317.35279     -2246.4346      6.9735814     -2239.461      -14320.52     
      4750   151.47987      301.17763     -2246.0647      6.6181448     -2239.4466     -12436.593    
      4800   156.97131      312.09589     -2246.2881      6.8580652     -2239.4301     -13066.873    
      4850   161.63797      321.37432     -2246.3322      7.0619516     -2239.2702     -14201.515    
      4900   153.42855      305.05207     -2245.9607      6.7032827     -2239.2574     -15426.933    
      4950   157.30145      312.75229     -2246.1229      6.872489      -2239.2505     -13482.403    
      5000   165.95403      329.95566     -2246.4875      7.2505197     -2239.237      -13586.612    
      5050   157.30413      312.75762     -2246.097       6.8726062     -2239.2244     -13483.411    
      5100   158.36523      314.86734     -2246.133       6.9189657     -2239.214      -14168.291    
      5150   149.39352      297.02948     -2245.7304      6.5269925     -2239.2034     -12070.122    
      5200   172.54838      343.06678     -2246.7386      7.5386264     -2239.1999     -11565.752    
      5250   173.35678      344.67406     -2246.7659      7.5739453     -2239.192      -13024.874    
      5300   163.83605      325.74462     -2246.3366      7.1579855     -2239.1786     -15440.449    
      5350   174.8394       347.62186     -2246.7115      7.6387209     -2239.0728     -12700.861    
      5400   160.45269      319.01769     -2246.0721      7.0101665     -2239.0619     -10162.557    
      5450   156.22409      310.61025     -2246.0113      6.8254194     -2239.1859     -14325.95     
      5500   157.48552      313.11827     -2246.0558      6.8805312     -2239.1752     -13259.963    
      5550   162.75214      323.58955     -2246.2873      7.1106294     -2239.1767     -12189.296    
      5600   162.39651      322.88247     -2246.2626      7.0950918     -2239.1675     -14750.651    
      5650   165.21847      328.49318     -2246.3944      7.218383      -2239.176      -11203.983    
      5700   156.04351      310.25122     -2245.9977      6.81753       -2239.1802     -14669.895    
      5750   159.63359      317.38914     -2246.1528      6.9743802     -2239.1784     -11648.991    
      5800   161.79875      321.69398     -2246.2444      7.0689757     -2239.1755     -15192.797    
      5850   164.02114      326.11262     -2246.3491      7.1660719     -2239.183      -10228.622    
      5900   160.06614      318.24915     -2246.1669      6.9932784     -2239.1736     -14902.46     
      5950   159.2977       316.72131     -2246.1367      6.9597052     -2239.177      -10600.662    
      6000   160.7457       319.60028     -2246.206       7.0229684     -2239.183      -11761.491    
      6050   166.75547      331.54911     -2246.4748      7.2855346     -2239.1893     -12263.1      
      6100   151.40348      301.02575     -2245.8042      6.6148074     -2239.1894     -14217.884    
      6150   159.58099      317.28455     -2246.171       6.972082      -2239.1989     -16241.289    
      6200   156.77269      311.701       -2246.0497      6.8493877     -2239.2003     -12665.409    
      6250   164.23691      326.54162     -2246.3881      7.175499      -2239.2126     -15105.718    
      6300   159.57244      317.26756     -2246.1877      6.9717086     -2239.216      -14203.604    
      6350   164.70845      327.47915     -2246.4194      7.1961003     -2239.2233     -13846.405    
      6400   155.65868      309.48608     -2246.0221      6.8007167     -2239.2214     -14026.161    
      6450   153.76896      305.72887     -2245.9477      6.7181549     -2239.2296     -13683.643    
      6500   160.93462      319.97589     -2246.2698      7.0312221     -2239.2386     -15392.137    
      6550   158.04797      314.23655     -2246.1505      6.9051045     -2239.2454     -11281.204    
      6600   162.09287      322.27877     -2246.3328      7.0818261     -2239.2509     -16114.683    
      6650   169.49625      336.99843     -2246.6618      7.4052792     -2239.2566     -14364.799    
      6700   156.61352      311.38454     -2246.1048      6.8424338     -2239.2624     -14105.966    
      6750   163.81405      325.70088     -2246.2666      7.1570243     -2239.1096     -11018.301    
      6800   169.63703      337.27833     -2246.5374      7.4114297     -2239.126      -16137.843    
      6850   170.96164      339.91198     -2246.61        7.4693021     -2239.1407     -11107.743    
      6900   159.14551      316.41872     -2246.0921      6.9530561     -2239.1391     -15018.834    
      6950   164.93978      327.9391      -2246.3663      7.2062074     -2239.1601     -13328.064    
      7000   164.10684      326.28302     -2246.3348      7.1698163     -2239.165      -10637.301    
      7050   170.26473      338.52634     -2246.6126      7.4388538     -2239.1738     -14851.326    
      7100   158.06949      314.27934     -2246.0829      6.9060448     -2239.1768     -13520.378    
      7150   152.53029      303.26611     -2245.8544      6.6640377     -2239.1904     -12496.727    
      7200   153.85838      305.90667     -2245.9178      6.7220618     -2239.1957     -11711.552    
      7250   151.93437      302.08128     -2245.8461      6.6380019     -2239.2081     -14417.826    
      7300   171.48611      340.95474     -2246.7204      7.4922161     -2239.2282     -13543.208    
      7350   167.13496      332.30364     -2246.535       7.3021147     -2239.2329     -13369.332    
      7400   160.16882      318.4533      -2246.2484      6.9977643     -2239.2506     -12718.64     
      7450   164.27976      326.62682     -2246.4344      7.1773711     -2239.257      -12798.773    
      7500   173.40109      344.76217     -2246.8532      7.5758814     -2239.2773     -11253.834    
      7550   159.93379      317.98601     -2246.2749      6.987496      -2239.2874     -13899.949    
      7600   161.12939      320.36314     -2246.3213      7.0397316     -2239.2816     -11070.908    
      7650   174.02412      346.0009      -2246.9057      7.6031015     -2239.3026     -11957.946    
      7700   165.03417      328.12676     -2246.5185      7.2103311     -2239.3082     -13468.626    
      7750   166.52846      331.09776     -2246.5944      7.2756166     -2239.3188     -13245.782    
      7800   168.72541      335.46581     -2246.7005      7.371601      -2239.3289     -13026.121    
      7850   156.73822      311.63246     -2246.1906      6.8478817     -2239.3427     -15110.398    
      7900   160.86927      319.84596     -2246.3858      7.028367      -2239.3574     -14540.003    
      7950   153.35624      304.9083      -2246.0676      6.7001234     -2239.3675     -12786.796    
      8000   161.04972      320.20473     -2246.4111      7.0362506     -2239.3749     -12044.561    
      8050   158.47749      315.09054     -2246.3128      6.9238704     -2239.3889     -15561.994    
      8100   171.70094      341.38186     -2246.9         7.5016018     -2239.3984     -15531.767    
      8150   156.30114      310.76344     -2246.2303      6.8287856     -2239.4015     -18043.962    
      8200   162.87291      323.82966     -2246.5277      7.1159057     -2239.4118     -12923.198    
      8250   164.09033      326.25018     -2246.5908      7.1690948     -2239.4217     -14350.667    
      8300   148.09964      294.45693     -2245.8996      6.4704627     -2239.4292     -15551.071    
      8350   160.98462      320.0753      -2246.4734      7.0334066     -2239.44       -14776.121    
      8400   154.92235      308.02209     -2246.2131      6.7685467     -2239.4446     -13744.727    
      8450   156.72408      311.60434     -2246.2998      6.8472638     -2239.4525     -12651.817    
      8500   159.59496      317.31233     -2246.442       6.9726923     -2239.4693     -14510.924    
      8550   159.2511       316.62866     -2246.437       6.9576694     -2239.4794     -14639.527    
      8600   155.35913      308.89051     -2246.2733      6.7876295     -2239.4857     -14121.596    
      8650   150.21425      298.66128     -2246.0549      6.5628501     -2239.4921     -13347.978    
      8700   166.1985       330.44172     -2246.7697      7.2612006     -2239.5085     -11226.039    
      8750   152.02267      302.25683     -2246.1548      6.6418595     -2239.513      -13411.939    
      8800   159.35029      316.82586     -2246.4871      6.9620027     -2239.5251     -14548.68     
      8850   152.63293      303.47018     -2246.1979      6.668522      -2239.5293     -13346.152    
      8900   151.60152      301.41949     -2246.1564      6.6234595     -2239.533      -14161.172    
      8950   167.9967       334.01696     -2246.8849      7.3397638     -2239.5451     -14154.007    
      9000   156.99971      312.15236     -2246.4149      6.859306      -2239.5556     -13082.462    
      9050   169.05327      336.11768     -2246.9552      7.3859253     -2239.5693     -11923.993    
      9100   141.42849      281.19312     -2245.7479      6.1790007     -2239.5689     -17018.068    
      9150   158.77969      315.69138     -2246.5159      6.9370732     -2239.5789     -12565.129    
      9200   149.16457      296.57425     -2246.1036      6.5169893     -2239.5866     -14121.261    
      9250   152.9436       304.08786     -2246.2785      6.6820949     -2239.5965     -12812.389    
      9300   157.06361      312.27941     -2246.4709      6.862098      -2239.6088     -9793.3105    
      9350   150.79011      299.80622     -2246.2018      6.5880093     -2239.6138     -15275.978    
      9400   164.99914      328.05712     -2246.834       7.2088008     -2239.6252     -16205.784    
      9450   166.17465      330.39431     -2246.891       7.2601589     -2239.6309     -14224.187    
      9500   170.99145      339.97124     -2247.1156      7.4706044     -2239.645      -12385.116    
      9550   161.05557      320.21638     -2246.6877      7.0365066     -2239.6512     -13592.188    
      9600   155.08301      308.34152     -2246.44        6.7755659     -2239.6645     -12029.626    
      9650   161.59057      321.28008     -2246.7321      7.0598807     -2239.6722     -13487.35     
      9700   156.12182      310.4069      -2246.5072      6.820951      -2239.6863     -14785.982    
      9750   160.21211      318.53937     -2246.6891      6.9996558     -2239.6895     -12474.394    
      9800   151.66068      301.53712     -2246.3299      6.6260445     -2239.7038     -10878.267    
      9850   163.06576      324.2131      -2246.85        7.1243314     -2239.7257     -13258.827    
      9900   162.48731      323.063       -2246.8364      7.099059      -2239.7374     -13345.468    
      9950   143.98785      286.28172     -2246.0329      6.2908189     -2239.7421     -13360.824    
     10000   163.56753      325.21073     -2246.9126      7.1462536     -2239.7663     -11559.03     
     10050   153.47453      305.14348     -2246.4737      6.7052914     -2239.7684     -16250.266    
     10100   157.80813      313.7597      -2246.6803      6.8946261     -2239.7857     -12621.264    
     10150   153.9213       306.03177     -2246.5157      6.7248108     -2239.7909     -13531.702    
     10200   146.20877      290.69743     -2246.1944      6.3878506     -2239.8066     -13499.909    
     10250   141.60164      281.53738     -2246.0044      6.1865657     -2239.8178     -15003.475    
     10300   144.19012      286.68389     -2246.1348      6.2996562     -2239.8351     -12936.63     
     10350   147.44526      293.15587     -2246.2859      6.4418729     -2239.844      -12971.167    
     10400   144.17256      286.64898     -2246.1517      6.2988891     -2239.8528     -15321.551    
     10450   167.3651       332.7612      -2247.1864      7.3121694     -2239.8742     -10279.285    
     10500   154.55         307.28176     -2246.6354      6.7522785     -2239.8831     -12580.684    
     10550   152.92744      304.05573     -2246.5789      6.6813889     -2239.8975     -9443.4694    
     10600   161.39885      320.89889     -2246.9579      7.0515042     -2239.9064     -13783.709    
     10650   156.29827      310.75774     -2246.7502      6.8286603     -2239.9216     -11313.081    
     10700   150.21014      298.65311     -2246.4884      6.5626705     -2239.9257     -14352.106    
     10750   148.52398      295.30063     -2246.4296      6.4890023     -2239.9406     -11196.091    
     10800   145.5194       289.32681     -2246.3097      6.3577322     -2239.9519     -12071.743    
     10850   153.24698      304.69104     -2246.6658      6.6953495     -2239.9705     -16152.731    
     10900   141.26078      280.85967     -2246.1534      6.1716734     -2239.9818     -16494.234    
     10950   151.38285      300.98472     -2246.6144      6.6139058     -2240.0005     -14589.775    
     11000   157.43949      313.02675     -2246.8943      6.87852       -2240.0158     -13572.562    
     11050   148.40626      295.06657     -2246.5074      6.483859      -2240.0236     -11362.756    
     11100   156.99284      312.13872     -2246.8986      6.8590062     -2240.0396     -13355.575    
     11150   135.77446      269.95158     -2245.9783      5.9319767     -2240.0463     -12654.633    
     11200   147.69406      293.65054     -2246.5129      6.4527429     -2240.0602     -10682.143    
     11250   142.53159      283.38634     -2246.3031      6.227195      -2240.0759     -13104.647    
     11300   139.11326      276.5899      -2246.1703      6.0778486     -2240.0924     -11214.891    
     11350   156.65477      311.46655     -2246.9513      6.8442358     -2240.107      -11195.571    
     11400   156.03871      310.24167     -2246.9379      6.8173201     -2240.1205     -10997.748    
     11450   156.77971      311.71495     -2246.983       6.8496944     -2240.1333     -12491.08     
     11500   152.00093      302.21361     -2246.7922      6.6409097     -2240.1513     -11933.741    
     11550   151.3959       301.01067     -2246.7709      6.6144762     -2240.1564     -13362.597    
     11600   154.67509      307.53048     -2246.9315      6.7577438     -2240.1738     -10180.791    
     11650   153.30833      304.81304     -2246.8897      6.6980303     -2240.1917     -12100.057    
     11700   147.99428      294.24744     -2246.6673      6.4658594     -2240.2014     -17986.133    
     11750   143.54534      285.40191     -2246.4949      6.2714857     -2240.2234     -13499.058    
     11800   136.29415      270.98485     -2246.1841      5.9546819     -2240.2294     -12620.192    
     11850   159.33795      316.80134     -2247.2136      6.9614638     -2240.2521     -12182.583    
     11900   149.06204      296.37041     -2246.7732      6.5125099     -2240.2607     -16439.736    
     11950   161.0319       320.1693      -2247.3345      7.0354721     -2240.299      -13007.285    
     12000   150.9297       300.08377     -2246.9063      6.5941081     -2240.3122     -13785.813    
     12050   160.60289      319.31633     -2247.3373      7.0167288     -2240.3206     -12519.148    
     12100   148.49802      295.24901     -2246.8242      6.4878681     -2240.3364     -13197.313    
     12150   144.44368      287.18803     -2246.6615      6.3107342     -2240.3508     -13408.453    
     12200   151.52614      301.26962     -2246.9881      6.6201663     -2240.3679     -13364.208    
     12250   146.2946       290.8681      -2246.7709      6.3916009     -2240.3793     -11093.754    
     12300   162.74735      323.58002     -2247.5101      7.1104201     -2240.3997     -14866.978    
     12350   148.49246      295.23795     -2246.8979      6.4876251     -2240.4103     -13876.186    
     12400   146.66685      291.6082      -2246.8325      6.4078641     -2240.4246     -13590.766    
     12450   159.4954       317.11439     -2247.4081      6.9683429     -2240.4397     -13281.712    
     12500   140.35066      279.05014     -2246.5805      6.1319104     -2240.4486     -12047.286    
     12550   156.18267      310.52789     -2247.2971      6.8236097     -2240.4735     -13387.573    
     12600   151.3285       300.87667     -2247.0943      6.6115315     -2240.4827     -13950.995    
     12650   162.54449      323.17668     -2247.6031      7.101557      -2240.5015     -13001.912    
     12700   150.72555      299.67787     -2247.1023      6.5851888     -2240.5171     -11899.042    
     12750   141.28482      280.90747     -2246.7036      6.172724      -2240.5309     -14314.28     
     12800   153.87289      305.93551     -2247.2729      6.7226956     -2240.5502     -11699.515    
     12850   142.45092      283.22594     -2246.7892      6.2236705     -2240.5656     -13154.085    
     12900   145.16504      288.62226     -2246.9252      6.3422504     -2240.583      -12017.522    
     12950   157.0719       312.2959      -2247.4634      6.8624602     -2240.601      -12826.623    
     13000   138.13857      274.65199     -2246.6481      6.0352645     -2240.6129     -12443.779    
     13050   150.46855      299.16688     -2247.2013      6.5739601     -2240.6274     -10755.161    
     13100   148.60049      295.45273     -2247.1377      6.4923447     -2240.6454     -15937.818    
     13150   134.80133      268.01675     -2246.5365      5.8894603     -2240.6471     -11411.926    
     13200   145.80247      289.88962     -2247.0367      6.3700995     -2240.6666     -14661.895    
     13250   142.08325      282.49493     -2246.8896      6.207607      -2240.682      -12710.95     
     13300   141.26576      280.86958     -2246.8606      6.1718912     -2240.6887     -12485.874    
     13350   151.76038      301.73533     -2247.3356      6.6304        -2240.7052     -12956.494    
     13400   153.9325       306.05402     -2247.4459      6.7252998     -2240.7206     -10910.778    
     13450   149.59711      297.43425     -2247.2559      6.535887      -2240.7201     -15882.314    
     13500   143.70132      285.71203     -2246.9846      6.2783004     -2240.7063     -14651.127    
     13550   151.9214       302.0555      -2247.2517      6.6374354     -2240.6143     -12064.316    
     13600   135.57236      269.54975     -2246.5496      5.9231467     -2240.6265     -12112.584    
     13650   158.20717      314.55307     -2247.5578      6.9120598     -2240.6457     -10513.864    
     13700   148.84752      295.94389     -2247.1561      6.5031374     -2240.6529     -13381.478    
     13750   143.48418      285.28031     -2246.9315      6.2688137     -2240.6626     -11113.679    
     13800   154.14988      306.48622     -2247.4117      6.7347971     -2240.6769     -11862.733    
     13850   149.06139      296.36912     -2247.2048      6.5124816     -2240.6924     -15852.986    
     13900   141.81412      281.95985     -2246.8948      6.195849      -2240.6989     -11494.037    
     13950   140.88336      280.10926     -2246.8688      6.1551839     -2240.7136     -13987.091    
     14000   151.12441      300.47089     -2247.3048      6.6026149     -2240.7022     -9495.142     
     14050   140.43692      279.22165     -2246.8433      6.1356793     -2240.7076     -12250.931    
     14100   149.57363      297.38758     -2247.2573      6.5348615     -2240.7224     -13976.862    
     14150   146.48939      291.25538     -2247.1305      6.4001112     -2240.7304     -13222.895    
     14200   147.12981      292.52868     -2247.17        6.428091      -2240.7419     -13105.926    
     14250   139.58816      277.5341      -2246.848       6.0985966     -2240.7494     -10211.725    
     14300   149.31526      296.87387     -2247.2897      6.523573      -2240.7661     -15445.13     
     14350   148.30355      294.86236     -2247.256       6.4793717     -2240.7767     -13443.089    
     14400   137.83125      274.04096     -2246.8054      6.0218375     -2240.7836     -16092.757    
     14450   156.32485      310.81059     -2247.6348      6.8298217     -2240.805      -13715.887    
     14500   151.84456      301.90271     -2247.4433      6.634078      -2240.8093     -14785.193    
     14550   139.07449      276.51281     -2246.8914      6.0761547     -2240.8152     -15117.375    
     14600   144.04412      286.3936      -2247.1197      6.2932773     -2240.8265     -15241.307    
     14650   132.89608      264.22868     -2246.6548      5.8062203     -2240.8486     -11713.295    
     14700   153.62846      305.44952     -2247.5794      6.7120164     -2240.8673     -12116.593    
     14750   148.11843      294.49429     -2247.3472      6.4712836     -2240.8759     -13156.018    
     14800   155.95973      310.08463     -2247.7041      6.8138693     -2240.8902     -13866.871    
     14850   150.8992       300.02311     -2247.4872      6.5927753     -2240.8945     -12808.156    
     14900   157.0536       312.25952     -2247.7719      6.8616608     -2240.9102     -14097.015    
     14950   159.09349      316.31529     -2247.8681      6.9507832     -2240.9173     -11863.299    
     15000   157.85544      313.85375     -2247.8279      6.8966928     -2240.9312     -12990.059    
     15050   145.84429      289.97276     -2247.3037      6.3719266     -2240.9318     -9414.7549    
     15100   141.04853      280.43767     -2247.1016      6.1624003     -2240.9392     -15053.861    
     15150   150.48323      299.19607     -2247.5355      6.5746017     -2240.9609     -11736.249    
     15200   152.80352      303.80934     -2247.6447      6.6759747     -2240.9688     -13986.701    
     15250   139.38888      277.13788     -2247.0643      6.0898901     -2240.9744     -13106.364    
     15300   147.65873      293.5803      -2247.4364      6.4511994     -2240.9852     -13025.757    
     15350   132.29916      263.04186     -2246.7659      5.7801409     -2240.9857     -13100.211    
     15400   136.57815      271.5495      -2246.9657      5.9670898     -2240.9986     -13312.47     
     15450   158.54444      315.22365     -2247.9423      6.9267954     -2241.0155     -13880.46     
     15500   147.33368      292.93402     -2247.4593      6.4369979     -2241.0223     -11494.784    
     15550   158.27991      314.6977      -2247.9445      6.9152379     -2241.0292     -12620.928    
     15600   154.83171      307.84188     -2247.8086      6.7645865     -2241.044      -11082.925    
     15650   139.02764      276.41967     -2247.1213      6.0741079     -2241.0472     -12295.491    
     15700   137.77272      273.92458     -2247.0763      6.0192801     -2241.057      -12555.103    
     15750   140.69034      279.7255      -2247.2048      6.1467509     -2241.058      -12437.295    
     15800   152.52536      303.2563      -2247.7447      6.6638221     -2241.0808     -12342.463    
     15850   144.8367       287.96943     -2247.4145      6.3279051     -2241.0866     -15189.259    
     15900   147.20139      292.671       -2247.5271      6.4312184     -2241.0959     -14274.244    
     15950   140.39549      279.13927     -2247.246       6.133869      -2241.1121     -10740.785    
     16000   148.08683      294.43145     -2247.5934      6.4699029     -2241.1235     -17319.256    
     16050   140.39099      279.13032     -2247.2623      6.1336724     -2241.1287     -13221.159    
     16100   141.34716      281.03141     -2247.3159      6.1754474     -2241.1405     -13507.719    
     16150   142.27699      282.88013     -2247.3665      6.2160716     -2241.1504     -14753.536    
     16200   148.29674      294.84881     -2247.6394      6.4790741     -2241.1603     -15510.437    
     16250   148.59835      295.44849     -2247.6619      6.4922515     -2241.1696     -13594.544    
     16300   146.00068      290.28371     -2247.5588      6.3787595     -2241.18       -11656.327    
     16350   142.00715      282.34362     -2247.3932      6.2042822     -2241.1889     -15048.458    
     16400   132.78458      264.00698     -2247.0019      5.8013488     -2241.2006     -12062.544    
     16450   136.13729      270.67296     -2247.1563      5.9478284     -2241.2085     -17209.29     
     16500   144.80516      287.90673     -2247.5511      6.3265273     -2241.2246     -12707.743    
     16550   141.83978      282.01086     -2247.4109      6.1969699     -2241.2139     -11733.69     
     16600   138.52045      275.41124     -2247.2783      6.0519484     -2241.2263     -13063.052    
     16650   132.8072       264.05197     -2247.0404      5.8023373     -2241.238      -14218.961    
     16700   131.56053      261.57328     -2246.9898      5.7478701     -2241.2419     -11392.838    
     16750   135.15998      268.72984     -2247.1496      5.9051298     -2241.2445     -13206.532    
     16800   135.1917       268.79291     -2247.1391      5.9065158     -2241.2326     -13778.722    
     16850   147.83157      293.92394     -2247.7089      6.4587508     -2241.2501     -13348.93     
     16900   144.03167      286.36885     -2247.5411      6.2927334     -2241.2484     -13274.5      
     16950   141.46735      281.27037     -2247.4415      6.1806983     -2241.2608     -12732.542    
     17000   148.40245      295.05899     -2247.7535      6.4836925     -2241.2698     -12668.126    
     17050   146.07545      290.43237     -2247.6584      6.3820262     -2241.2764     -13000.406    
     17100   150.51509      299.25942     -2247.8574      6.5759937     -2241.2814     -14409.959    
     17150   137.08206      272.5514      -2247.279       5.9891057     -2241.2898     -13939.446    
     17200   134.66247      267.74068     -2247.1808      5.8833938     -2241.2974     -12111.038    
     17250   133.44381      265.31769     -2247.1352      5.8301505     -2241.3051     -14564.852    
     17300   133.14762      264.7288      -2247.1381      5.8172101     -2241.3209     -10557.098    
     17350   139.03645      276.43719     -2247.396       6.0744928     -2241.3215     -15929.921    
     17400   143.05482      284.42665     -2247.5844      6.2500551     -2241.3343     -13451.739    
     17450   142.31085      282.94746     -2247.561       6.2175511     -2241.3435     -11518.554    
     17500   138.92768      276.22091     -2247.4145      6.0697404     -2241.3447     -14230.148    
     17550   154.49339      307.1692      -2248.1139      6.7498051     -2241.3641     -12857.515    
     17600   140.75084      279.84578     -2247.5115      6.1493941     -2241.3621     -12490.613    
     17650   154.79932      307.77747     -2248.1384      6.7631712     -2241.3752     -12153.33     
     17700   139.55726      277.47268     -2247.4847      6.097247      -2241.3874     -11497.513    
     17750   130.59661      259.65679     -2247.0944      5.7057567     -2241.3887     -11817.742    
     17800   142.696        283.71323     -2247.6374      6.2343782     -2241.4031     -11394.878    
     17850   145.15027      288.59288     -2247.7509      6.3416048     -2241.4093     -15860.437    
     17900   151.55696      301.3309      -2248.0405      6.6215129     -2241.419      -15074.536    
     17950   143.20864      284.73246     -2247.6851      6.2567751     -2241.4283     -12998.001    
     18000   142.06166      282.45201     -2247.6349      6.206664      -2241.4282     -12735.418    
     18050   137.73767      273.8549      -2247.462       6.0177492     -2241.4442     -12280.81     
     18100   149.82792      297.89315     -2247.9939      6.5459711     -2241.448      -11109.799    
     18150   152.0859       302.38256     -2248.0986      6.6446223     -2241.454      -14325.982    
     18200   135.25452      268.91781     -2247.3739      5.9092604     -2241.4646     -11376.992    
     18250   134.22164      266.86419     -2247.3373      5.8641337     -2241.4731     -13259.292    
     18300   137.957        274.29098     -2247.5021      6.0273315     -2241.4748     -13398.58     
     18350   144.511        287.32188     -2247.8052      6.3136755     -2241.4915     -12984.145    
     18400   138.50873      275.38794     -2247.5507      6.0514365     -2241.4992     -13321.367    
     18450   142.45687      283.23778     -2247.7333      6.2239307     -2241.5093     -15660.09     
     18500   142.17398      282.67532     -2247.7306      6.2115711     -2241.519      -12253.144    
     18550   141.75751      281.84728     -2247.7013      6.1933755     -2241.5079     -12290.227    
     18600   145.05086      288.39525     -2247.8419      6.3372619     -2241.5046     -11048.476    
     18650   144.76154      287.82        -2247.829       6.3246212     -2241.5043     -11063.52     
     18700   133.73257      265.89181     -2247.3225      5.8427665     -2241.4797     -13756.82     
     18750   132.97108      264.37779     -2247.2985      5.809497      -2241.489      -13267.327    
     18800   118.79638      236.19515     -2246.6775      5.1902052     -2241.4873     -12360.2      
     18850   144.22878      286.76075     -2247.7987      6.3013451     -2241.4974     -10113.053    
     18900   127.79757      254.09164     -2247.0742      5.5834669     -2241.4907     -14956.688    
     18950   155.56807      309.30592     -2248.2964      6.7967577     -2241.4997     -10814.993    
     19000   127.85842      254.21263     -2247.0815      5.5861253     -2241.4954     -12239.902    
     19050   154.94521      308.06754     -2248.2838      6.7695454     -2241.5143     -12529.049    
     19100   149.2277       296.69977     -2248.0307      6.5197475     -2241.511      -10494.466    
     19150   143.06471      284.4463      -2247.773       6.2504868     -2241.5225     -13247.377    
     19200   134.52163      267.46066     -2247.3973      5.8772405     -2241.5201     -14000.489    
     19250   140.57618      279.49852     -2247.6657      6.1417632     -2241.5239     -11738.289    
     19300   137.47285      273.32836     -2247.527       6.0061789     -2241.5209     -13579.194    
     19350   138.77255      275.91249     -2247.5892      6.0629629     -2241.5262     -14521.77     
     19400   130.29917      259.0654      -2247.2186      5.6927613     -2241.5259     -10621.219    
     19450   135.48013      269.36637     -2247.4407      5.9191172     -2241.5216     -13864.871    
     19500   142.81814      283.95607     -2247.765       6.2397145     -2241.5253     -12120.467    
     19550   134.55335      267.52373     -2247.3891      5.8786265     -2241.5104     -14478.87     
     19600   141.03988      280.42047     -2247.6823      6.1620225     -2241.5203     -13320.42     
     19650   142.80227      283.92452     -2247.7508      6.2390212     -2241.5118     -13632.45     
     19700   148.7492       295.74842     -2248.0114      6.4988421     -2241.5125     -11655.876    
     19750   143.79314      285.8946      -2247.7907      6.2823122     -2241.5084     -10090.464    
     19800   137.79801      273.97486     -2247.518       6.0203851     -2241.4977     -11265.849    
     19850   158.63418      315.40208     -2248.4346      6.9307161     -2241.5039     -12255.216    
     19900   148.46907      295.19144     -2247.9736      6.4866029     -2241.487      -16304.203    
     19950   152.49298      303.19192     -2248.146       6.6624074     -2241.4836     -9884.7028    
     20000   164.43006      326.92566     -2248.6666      7.1839378     -2241.4827     -11008.984    
     20050   137.79803      273.9749      -2247.4952      6.020386      -2241.4748     -12889.755    
     20100   143.52322      285.35794     -2247.7427      6.2705194     -2241.4722     -14491.597    
     20150   136.65401      271.70032     -2247.4701      5.9704038     -2241.4997     -13151.25     
     20200   146.98491      292.24058     -2247.9107      6.4217601     -2241.489      -15231.351    
     20250   137.14172      272.67002     -2247.4781      5.9917122     -2241.4864     -13136.353    
     20300   135.79652      269.99543     -2247.4117      5.9329402     -2241.4788     -10238.832    
     20350   146.37634      291.03061     -2247.8598      6.395172      -2241.4646     -13727.978    
     20400   146.84582      291.96405     -2247.8695      6.4156836     -2241.4538     -13635.075    
     20450   159.21574      316.55835     -2248.3973      6.9561244     -2241.4412     -13097.564    
     20500   144.93497      288.16482     -2247.7621      6.3321985     -2241.4299     -11873.639    
     20550   152.44681      303.10014     -2248.079       6.6603905     -2241.4187     -10645.502    
     20600   139.18679      276.73609     -2247.4826      6.0810609     -2241.4016     -11648.268    
     20650   144.7947       287.88594     -2247.7186      6.3260704     -2241.3926     -14159.046    
     20700   142.71896      283.75887     -2247.6108      6.2353811     -2241.3754     -11876.194    
     20750   145.85735      289.99873     -2247.7369      6.3724972     -2241.3644     -12586.376    
     20800   152.18587      302.58131     -2247.9938      6.6489898     -2241.3448     -13710.108    
     20850   155.23264      308.63902     -2248.1168      6.7821031     -2241.3347     -11863.149    
     20900   144.47561      287.25152     -2247.629       6.3121294     -2241.3169     -12548.306    
     20950   142.57571      283.47405     -2247.5322      6.2291225     -2241.3031     -12770.488    
     21000   143.38124      285.07564     -2247.5486      6.2643161     -2241.2843     -16068.237    
     21050   145.39119      289.0719      -2247.6269      6.3521309     -2241.2748     -11646.687    
     21100   138.19145      274.75711     -2247.2935      6.0375745     -2241.2559     -13561.014    
     21150   148.28535      294.82616     -2247.7164      6.4785762     -2241.2378     -11921.401    
     21200   140.99042      280.32212     -2247.3826      6.1598613     -2241.2228     -10803.582    
     21250   144.15415      286.61237     -2247.499       6.2980847     -2241.2009     -12418.954    
     21300   150.10768      298.44938     -2247.743       6.5581937     -2241.1848     -12180.187    
     21350   136.18955      270.77686     -2247.1118      5.9501117     -2241.1617     -12178.628    
     21400   146.22621      290.73211     -2247.5186      6.3886126     -2241.13       -12775.957    
     21450   145.39841      289.08626     -2247.4616      6.3524463     -2241.1092     -10944.235    
     21500   144.70027      287.69819     -2247.4187      6.3219446     -2241.0968     -12186.436    
     21550   156.53623      311.23086     -2247.9148      6.8390568     -2241.0758     -9770.3026    
     21600   146.80403      291.88096     -2247.4703      6.4138577     -2241.0565     -11508.644    
     21650   146.87743      292.0269      -2247.4583      6.4170647     -2241.0412     -12146.289    
     21700   154.50761      307.19749     -2247.7702      6.7504266     -2241.0197     -14676.475    
     21750   160.17787      318.47129     -2248.0026      6.9981597     -2241.0044     -11532.361    
     21800   154.8559       307.88997     -2247.7465      6.7656433     -2240.9809     -11475.071    
     21850   143.44727      285.20692     -2247.2224      6.2672009     -2240.9552     -10825.146    
     21900   156.1621       310.487       -2247.7729      6.8227112     -2240.9502     -10629.743    
     21950   161.04679      320.19892     -2247.964       7.0361229     -2240.9279     -11324.539    
     22000   149.31839      296.8801      -2247.4341      6.5237099     -2240.9104     -10979.091    
     22050   143.08968      284.49596     -2247.1465      6.251578      -2240.895      -13802.023    
     22100   137.62457      273.63002     -2246.8771      6.0128075     -2240.8643     -10006.462    
     22150   149.46173      297.16508     -2247.3821      6.5299723     -2240.8521     -12963.412    
     22200   146.76778      291.80888     -2247.2407      6.4122739     -2240.8284     -11712.508    
     22250   151.5574       301.33176     -2247.4323      6.6215318     -2240.8107     -12650.213    
     22300   156.41636      310.99253     -2247.6291      6.8338198     -2240.7953     -12426.027    
     22350   143.56252      285.43607     -2247.0426      6.2722363     -2240.7704     -12228.76     
     22400   152.61761      303.43971     -2247.4163      6.6678524     -2240.7485     -10882.015    
     22450   154.91558      308.00863     -2247.5025      6.7682508     -2240.7342     -13585.607    
     22500   157.09192      312.3357      -2247.5715      6.8633347     -2240.7082     -11665.266    
     22550   148.99703      296.24116     -2247.2006      6.5096697     -2240.6909     -13016.292    
     22600   144.17045      286.64477     -2246.9697      6.2987967     -2240.671      -11821.544    
     22650   148.76129      295.77244     -2247.1481      6.49937       -2240.6487     -12504.633    
     22700   152.1004       302.41139     -2247.2725      6.6452558     -2240.6273     -12019.087    
     22750   146.00886      290.29998     -2246.9909      6.3791169     -2240.6117     -14661.145    
     22800   147.46081      293.18678     -2247.0346      6.4425521     -2240.5921     -13929.533    
     22850   149.16567      296.57645     -2247.0921      6.5170376     -2240.5751     -13852.796    
     22900   136.02189      270.44353     -2246.5007      5.9427869     -2240.5579     -12724.953    
     22950   135.67864      269.76106     -2246.4638      5.9277901     -2240.536      -15502.559    
     23000   133.33699      265.10531     -2246.3502      5.8254837     -2240.5247     -14357.297    
     23050   140.83793      280.01894     -2246.654       6.153199      -2240.5008     -11658.294    
     23100   142.09705      282.52236     -2246.6906      6.2082098     -2240.4824     -14799.643    
     23150   144.29637      286.89514     -2246.7692      6.3042983     -2240.4649     -12608.652    
     23200   149.95962      298.15502     -2246.9906      6.5517254     -2240.4389     -14005.07     
     23250   145.74899      289.78328     -2246.7905      6.3677629     -2240.4227     -12887.339    
     23300   153.07175      304.34265     -2247.0978      6.6876937     -2240.4101     -12459.751    
     23350   147.52327      293.31096     -2246.8339      6.445281      -2240.3886     -11807.628    
     23400   148.7351       295.72037     -2246.8667      6.4982258     -2240.3685     -14476.998    
     23450   149.38779      297.01808     -2246.8762      6.5267421     -2240.3494     -11521.985    
     23500   125.96647      250.45097     -2245.8299      5.5034659     -2240.3265     -14113.734    
     23550   142.94476      284.20782     -2246.5605      6.2452465     -2240.3152     -12766.201    
     23600   148.09841      294.45448     -2246.774       6.4704089     -2240.3036     -11670.482    
     23650   144.97303      288.2405      -2246.6157      6.3338614     -2240.2819     -12218.09     
     23700   155.114        308.40313     -2247.0413      6.7769196     -2240.2644     -14094.745    
     23750   147.79781      293.85683     -2246.6995      6.4572759     -2240.2422     -14309.346    
     23800   140.13154      278.61448     -2246.3451      6.1223372     -2240.2228     -12721.589    
     23850   157.17         312.49094     -2247.0751      6.866746      -2240.2083     -11932.374    
     23900   159.0546       316.23798     -2247.14        6.9490844     -2240.191      -11986.696    
     23950   148.64798      295.54716     -2246.6674      6.4944197     -2240.173      -13766.446    
     24000   147.42206      293.10975     -2246.6015      6.4408595     -2240.1607     -14482.185    
     24050   137.13453      272.65571     -2246.1302      5.9913978     -2240.1388     -12721.269    
     24100   144.48287      287.26594     -2246.436       6.3124463     -2240.1235     -16664.066    
     24150   141.12437      280.58846     -2246.2762      6.1657138     -2240.1105     -12533.467    
     24200   157.10358      312.35888     -2246.9582      6.8638442     -2240.0944     -11215.018    
     24250   158.53454      315.20396     -2247.0007      6.9263626     -2240.0743     -13329.191    
     24300   153.24682      304.69073     -2246.7591      6.6953426     -2240.0637     -13723.095    
     24350   158.51623      315.16757     -2246.9744      6.9255629     -2240.0488     -13622.621    
     24400   158.01067      314.16239     -2246.9444      6.9034749     -2240.0409     -10102.753    
     24450   156.27618      310.71381     -2246.8525      6.8276951     -2240.0248     -13693.246    
     24500   153.2085       304.61454     -2246.7027      6.6936684     -2240.0091     -14688.698    
     24550   153.17189      304.54176     -2246.69        6.6920691     -2239.9979     -13347.588    
     24600   153.01261      304.22508     -2246.665       6.6851102     -2239.9799     -9920.9061    
     24650   150.35427      298.93966     -2246.537       6.5689674     -2239.9681     -14044.329    
     24700   165.15846      328.37387     -2247.1785      7.2157612     -2239.9627     -14713.305    
     24750   154.80114      307.78108     -2246.7063      6.7632507     -2239.9431     -10832.727    
     24800   152.81075      303.82372     -2246.609       6.6762907     -2239.9327     -10445.111    
     24850   165.05586      328.16988     -2247.1385      7.2112787     -2239.9272     -10855.998    
     24900   160.63025      319.37073     -2246.9328      7.0179241     -2239.9149     -14989.56     
     24950   151.47069      301.15938     -2246.5231      6.6177439     -2239.9054     -11358.141    
     25000   155.24858      308.6707      -2246.6801      6.7827994     -2239.8973     -10792.17     
     25050   146.29847      290.87579     -2246.2863      6.3917699     -2239.8945     -11952.448    
     25100   163.93333      325.93803     -2247.0529      7.1622356     -2239.8907     -11568.075    
     25150   147.72843      293.71888     -2246.3333      6.4542446     -2239.879      -12057.908    
     25200   142.91473      284.14811     -2246.1122      6.2439345     -2239.8683     -13491.712    
     25250   157.35348      312.85575     -2246.7416      6.8747625     -2239.8668     -12081.312    
     25300   154.61422      307.40945     -2246.6118      6.7550842     -2239.8567     -15088.408    
     25350   169.98402      337.96823     -2247.2819      7.4265899     -2239.8553     -12381.742    
     25400   171.57158      341.12467     -2247.3478      7.4959502     -2239.8518     -14266.51     
     25450   173.41096      344.78179     -2247.4292      7.5763126     -2239.8528     -11601.43     
     25500   164.23003      326.52794     -2247.0188      7.1751982     -2239.8436     -13423.447    
     25550   158.48169      315.09889     -2246.7643      6.9240539     -2239.8403     -11856.49     
     25600   155.56798      309.30574     -2246.6365      6.7967539     -2239.8397     -13049.092    
     25650   152.81135      303.82492     -2246.5159      6.6763171     -2239.8396     -12958.214    
     25700   135.01943      268.45039     -2245.7342      5.8989891     -2239.8352     -13030.537    
     25750   153.00062      304.20123     -2246.5246      6.6845862     -2239.8401     -14384.997    
     25800   150.79059      299.80717     -2246.4289      6.5880302     -2239.8409     -14295.985    
     25850   150.21872      298.67015     -2246.3975      6.563045      -2239.8344     -14227.152    
     25900   137.96411      274.3051      -2245.8576      6.027642      -2239.83       -9948.0348    
     25950   154.57174      307.325       -2246.5886      6.7532285     -2239.8354     -14341.283    
     26000   160.93255      319.97178     -2246.8714      7.0311319     -2239.8402     -14897.982    
     26050   163.18452      324.44923     -2246.9648      7.1295202     -2239.8353     -11921.82     
     26100   157.14488      312.441       -2246.6995      6.8656486     -2239.8339     -12455.956    
     26150   156.57073      311.29945     -2246.6802      6.8405641     -2239.8396     -13907.404    
     26200   147.75166      293.76506     -2246.2918      6.4552595     -2239.8365     -12057.224    
     26250   152.65528      303.51462     -2246.5023      6.6694985     -2239.8328     -10978.391    
     26300   144.16379      286.63154     -2246.1248      6.2985059     -2239.8263     -13333.325    
     26350   171.9608       341.89852     -2247.3513      7.512955      -2239.8384     -16724.064    
     26400   159.14013      316.40801     -2246.7946      6.9528208     -2239.8418     -12562.53     
     26450   165.93731      329.92241     -2247.0946      7.2497891     -2239.8448     -14385.542    
     26500   154.47466      307.13196     -2246.5903      6.7489868     -2239.8413     -10430.082    
     26550   157.64459      313.43454     -2246.7383      6.8874811     -2239.8508     -17158.671    
     26600   158.19505      314.52898     -2246.7713      6.9115304     -2239.8598     -11941.417    
     26650   147.84413      293.94892     -2246.313       6.4592997     -2239.8537     -16693.449    
     26700   144.3584       287.01847     -2246.1755      6.3070083     -2239.8685     -12524.084    
     26750   176.1821       350.29147     -2247.5835      7.6973834     -2239.8861     -16303.545    
     26800   147.16525      292.59914     -2246.3072      6.4296393     -2239.8776     -10848.202    
     26850   150.28896      298.80982     -2246.4505      6.5661141     -2239.8844     -13476.898    
     26900   151.77842      301.77121     -2246.5194      6.6311884     -2239.8882     -15803.111    
     26950   156.37003      310.90041     -2246.7296      6.8317953     -2239.8978     -11162.08     
     27000   153.82394      305.83819     -2246.6282      6.720557      -2239.9076     -12733.593    
     27050   156.08468      310.33307     -2246.7309      6.8193285     -2239.9115     -14154.19     
     27100   146.22838      290.73643     -2246.303       6.3887075     -2239.9143     -12310.381    
     27150   155.68002      309.5285      -2246.7392      6.8016489     -2239.9375     -13228.895    
     27200   150.89157      300.00794     -2246.5327      6.5924418     -2239.9403     -13328.149    
     27250   137.91685      274.21114     -2245.9684      6.0255772     -2239.9429     -13342.24     
     27300   156.42336      311.00644     -2246.7905      6.8341254     -2239.9564     -12888.311    
     27350   149.38275      297.00805     -2246.4907      6.5265216     -2239.9642     -13436.799    
     27400   155.46358      309.09818     -2246.7706      6.7921928     -2239.9785     -14737.622    
     27450   150.83781      299.90106     -2246.5747      6.5900933     -2239.9846     -14328.875    
     27500   157.66802      313.48112     -2246.8904      6.8885046     -2240.0019     -12939.756    
     27550   154.88676      307.95132     -2246.7763      6.7669915     -2240.0093     -12206.251    
     27600   145.58067      289.44863     -2246.3822      6.3604091     -2240.0218     -13615.319    
     27650   156.87623      311.90686     -2246.8838      6.8539113     -2240.0299     -13821.652    
     27700   155.27737      308.72795     -2246.8282      6.7840574     -2240.0441     -13242.049    
     27750   166.0781       330.20234     -2247.318       7.2559403     -2240.0621     -13227.591    
     27800   147.89032      294.04075     -2246.5318      6.4613175     -2240.0705     -12368.29     
     27850   146.27413      290.82738     -2246.468       6.3907062     -2240.0773     -13186.793    
     27900   139.38029      277.12081     -2246.1777      6.0895148     -2240.0882     -15176.646    
     27950   158.31215      314.7618      -2247.0256      6.9166464     -2240.109      -14294.448    
     28000   158.22099      314.58056     -2247.0429      6.912664      -2240.1302     -10874.473    
     28050   162.39835      322.88613     -2247.2469      7.0951723     -2240.1518     -13998.836    
     28100   157.01569      312.18414     -2247.0241      6.8600045     -2240.1641     -13913.005    
     28150   157.44754      313.04275     -2247.0599      6.8788718     -2240.181      -10570.885    
     28200   151.89397      302.00095     -2246.8319      6.6362368     -2240.1957     -9456.3128    
     28250   147.53105      293.32645     -2246.6593      6.4456213     -2240.2137     -13278.344    
     28300   146.74506      291.7637      -2246.6442      6.4112812     -2240.233      -11634.061    
     28350   143.97187      286.24995     -2246.5412      6.2901208     -2240.2511     -12522.573    
     28400   160.06664      318.25014     -2247.262       6.9933001     -2240.2687     -14611.793    
     28450   146.39438      291.06647     -2246.6826      6.3959599     -2240.2866     -12265.618    
     28500   150.03465      298.30419     -2246.8742      6.5550032     -2240.3192     -12863.26     
     28550   153.18804      304.57387     -2247.029       6.6927746     -2240.3362     -17076.435    
     28600   143.9721       286.25041     -2246.652       6.2901308     -2240.3618     -12113.782    
     28650   146.52589      291.32794     -2246.7846      6.4017056     -2240.3829     -12258.625    
     28700   138.28845      274.94998     -2246.4428      6.0418127     -2240.401      -14291.718    
     28750   156.46844      311.09607     -2247.265       6.8360949     -2240.4289     -15321.064    
     28800   148.91491      296.07788     -2246.9588      6.5060818     -2240.4528     -13530.134    
     28850   149.2974       296.83836     -2247.0092      6.5227927     -2240.4864     -12628.348    
     28900   141.74816      281.82869     -2246.7023      6.192967      -2240.5093     -16091.198    
     28950   160.3832       318.87954     -2247.5529      7.0071307     -2240.5458     -11399.895    
     29000   162.61923      323.3253      -2247.6794      7.1048228     -2240.5746     -12955.164    
     29050   154.19013      306.56626     -2247.3448      6.7365558     -2240.6083     -11870.657    
     29100   148.86167      295.97202     -2247.1374      6.5037558     -2240.6337     -13987.732    
     29150   156.64035      311.43787     -2247.5199      6.8436058     -2240.6763     -10910.903    
     29200   156.65634      311.46967     -2247.5467      6.8443046     -2240.7024     -13734.005    
     29250   155.60646      309.38225     -2247.5352      6.7984351     -2240.7368     -11810.937    
     29300   138.78573      275.93869     -2246.8301      6.0635388     -2240.7666     -12994.615    
     29350   133.44881      265.32764     -2246.6239      5.8303691     -2240.7935     -15565.982    
     29400   145.82565      289.93571     -2247.2048      6.3711124     -2240.8337     -14646.337    
     29450   144.06977      286.4446      -2247.1583      6.294398      -2240.8639     -15232.398    
     29500   142.11757      282.56317     -2247.1112      6.2091065     -2240.9021     -11239.758    
     29550   143.90128      286.1096      -2247.2236      6.2870366     -2240.9365     -13310.475    
     29600   148.87781      296.00411     -2247.4794      6.5044609     -2240.9749     -13935.962    
     29650   152.4415       303.08958     -2247.6752      6.6601585     -2241.015      -12076.733    
     29700   140.25087      278.85172     -2247.1678      6.1275504     -2241.0403     -10653.562    
     29750   144.89896      288.09323     -2247.408       6.3306254     -2241.0774     -13714.426    
     29800   139.58666      277.53113     -2247.2118      6.0985314     -2241.1133     -15474.152    
     29850   134.33496      267.0895      -2247.0124      5.8690848     -2241.1433     -12902.876    
     29900   148.33718      294.92923     -2247.6601      6.480841      -2241.1792     -12084.175    
     29950   138.41791      275.20738     -2247.2528      6.0474687     -2241.2054     -14618.01     
     30000   139.56481      277.48767     -2247.3238      6.0975765     -2241.2262     -12504.639    
     30050   140.28862      278.92679     -2247.3829      6.1291999     -2241.2537     -13987.55     
     30100   135.30774      269.02362     -2247.1898      5.9115855     -2241.2782     -13968.945    
     30150   127.92451      254.34402     -2246.8864      5.5890126     -2241.2974     -13895.071    
     30200   151.18022      300.58184     -2247.929       6.6050529     -2241.324      -11697.52     
     30250   145.8521       289.98829     -2247.7191      6.3722679     -2241.3468     -14841.042    
     30300   148.5198       295.2923      -2247.861       6.4888194     -2241.3722     -13512.875    
     30350   146.93627      292.14388     -2247.8109      6.4196353     -2241.3913     -14194.245    
     30400   130.19074      258.84982     -2247.0967      5.6880242     -2241.4086     -10629.7      
     30450   139.56217      277.48244     -2247.5266      6.0974614     -2241.4291     -11918.058    
     30500   146.41629      291.11004     -2247.8473      6.3969175     -2241.4504     -16003.138    
     30550   144.62782      287.55414     -2247.7809      6.3187793     -2241.4621     -12189.61     
     30600   138.0833       274.5421      -2247.5103      6.0328497     -2241.4775     -12136.725    
     30650   137.67333      273.72697     -2247.5033      6.014938      -2241.4884     -12419.908    
     30700   141.80699      281.94566     -2247.7042      6.1955374     -2241.5087     -15163.042    
     30750   146.49409      291.26472     -2247.9185      6.4003163     -2241.5182     -12715.465    
     30800   138.34049      275.05344     -2247.5683      6.044086      -2241.5242     -10451.647    
     30850   138.52068      275.41171     -2247.5882      6.0519588     -2241.5362     -13056.723    
     30900   146.09033      290.46196     -2247.9345      6.3826763     -2241.5518     -10259.622    
     30950   147.77594      293.81333     -2248.0191      6.4563202     -2241.5628     -12555.421    
     31000   149.63784      297.51523     -2248.1051      6.5376664     -2241.5674     -14422.929    
     31050   148.35846      294.97153     -2248.0643      6.4817708     -2241.5825     -11947.132    
     31100   144.27143      286.84556     -2247.891       6.3032087     -2241.5878     -11307.364    
     31150   133.85941      266.144       -2247.4424      5.848308      -2241.5941     -13629.408    
     31200   138.78343      275.93411     -2247.6573      6.0634382     -2241.5938     -10924.714    
     31250   145.36228      289.01442     -2247.9505      6.3508678     -2241.5997     -12980.457    
     31300   136.48835      271.37096     -2247.5622      5.9631664     -2241.5991     -16288.942    
     31350   130.37516      259.21649     -2247.2951      5.6960815     -2241.599      -14857.608    
     31400   142.85421      284.02778     -2247.8453      6.2412902     -2241.6041     -16034.19     
     31450   137.17126      272.72875     -2247.5988      5.9930028     -2241.6058     -12209.299    
     31500   124.24699      247.03225     -2247.0291      5.4283421     -2241.6008     -14922.421    
     31550   134.41344      267.24554     -2247.4788      5.8725136     -2241.6063     -15765.121    
     31600   132.45902      263.3597      -2247.3989      5.7871253     -2241.6118     -14298.628    
     31650   141.77632      281.88469     -2247.8011      6.1941975     -2241.6069     -12666.105    
     31700   142.45388      283.23184     -2247.8334      6.2238        -2241.6096     -15668.056    
     31750   133.18148      264.79612     -2247.4183      5.8186894     -2241.5996     -12400.466    
     31800   134.92989      268.27236     -2247.4954      5.8950772     -2241.6003     -12944.887    
     31850   144.41857      287.1381      -2247.9098      6.309637      -2241.6002     -13724.031    
     31900   127.46419      253.42881     -2247.1545      5.5689016     -2241.5856     -16312.686    
     31950   136.61789      271.62851     -2247.5565      5.968826      -2241.5877     -14111.8      
     32000   130.28473      259.0367      -2247.2725      5.6921306     -2241.5803     -12037.401    
     32050   142.73738      283.79551     -2247.8088      6.2361862     -2241.5726     -11912.439    
     32100   139.39233      277.14474     -2247.6538      6.0900408     -2241.5638     -11101.563    
     32150   144.38058      287.06256     -2247.8646      6.3079772     -2241.5566     -10520.901    
     32200   141.37601      281.08877     -2247.7245      6.1767078     -2241.5478     -12582.719    
     32250   147.81927      293.8995      -2248.0054      6.4582135     -2241.5472     -13921.336    
     32300   148.38162      295.01757     -2248.0216      6.4827823     -2241.5388     -14423.129    
     32350   142.69004      283.70137     -2247.7619      6.2341176     -2241.5278     -12939.616    
     32400   141.20682      280.75237     -2247.6919      6.1693157     -2241.5225     -12729.734    
     32450   134.29195      267.004       -2247.3794      5.8672058     -2241.5122     -14050.759    
     32500   134.77334      267.96111     -2247.3677      5.8882375     -2241.4795     -14745.485    
     32550   136.14157      270.68148     -2247.4233      5.9480156     -2241.4753     -14321.365    
     32600   139.19002      276.74251     -2247.5451      6.081202      -2241.4639     -14730.317    
     32650   142.39067      283.10616     -2247.6718      6.2210383     -2241.4507     -15391.132    
     32700   140.93037      280.20274     -2247.5994      6.1572379     -2241.4422     -15064.799    
     32750   134.50218      267.42199     -2247.3042      5.8763909     -2241.4278     -12360.062    
     32800   129.39984      257.27732     -2247.0618      5.6534697     -2241.4083     -13321.958    
     32850   136.75664      271.90438     -2247.3768      5.9748879     -2241.4019     -14196.193    
[...]
    192000   153.84979      305.88959     -2247.2668      6.7216866     -2240.5451     -14763.861    
    192050   148.69962      295.64982     -2247.0303      6.4966757     -2240.5336     -14460.914    
    192100   145.75177      289.78882     -2246.9066      6.3678846     -2240.5388     -12806.113    
    192150   142.20526      282.73751     -2246.7499      6.2129376     -2240.537      -12197.234    
    192200   143.27495      284.86431     -2246.7934      6.2596724     -2240.5337     -12176.841    
    192250   141.00486      280.35084     -2246.6928      6.1604924     -2240.5323     -16320.543    
    192300   143.34601      285.00561     -2246.8004      6.2627772     -2240.5376     -14230.502    
    192350   157.33865      312.82625     -2247.4081      6.8741143     -2240.5339     -13438.693    
    192400   154.48491      307.15235     -2247.2823      6.7494347     -2240.5329     -11337.567    
    192450   143.94857      286.20363     -2246.8158      6.2891029     -2240.5267     -14168.358    
    192500   153.55905      305.31152     -2247.2412      6.708984      -2240.5322     -11141.966    
    192550   147.9426       294.1447      -2246.9864      6.4636018     -2240.5228     -14472.059    
    192600   150.07137      298.3772      -2247.0831      6.5566076     -2240.5264     -11661.58     
    192650   158.76497      315.66211     -2247.4654      6.9364301     -2240.529      -11082.682    
    192700   153.02663      304.25295     -2247.2159      6.6857227     -2240.5301     -11730.599    
    192750   156.19674      310.55586     -2247.3475      6.8242243     -2240.5233     -11470.057    
    192800   149.94838      298.13267     -2247.0763      6.5512343     -2240.5251     -13452.697    
    192850   159.78259      317.68538     -2247.5114      6.9808899     -2240.5305     -12272.51     
    192900   144.09729      286.49932     -2246.818       6.2956003     -2240.5224     -11698.932    
    192950   151.37736      300.97381     -2247.1415      6.6136661     -2240.5279     -11933.096    
    193000   149.99612      298.22758     -2247.0732      6.5533198     -2240.5199     -15613.173    
    193050   141.67901      281.6912      -2246.7108      6.1899458     -2240.5209     -13589.139    
    193100   164.02199      326.11431     -2247.6908      7.166109      -2240.5247     -16071.192    
    193150   150.90191      300.0285      -2247.1075      6.5928936     -2240.5146     -13441.588    
    193200   149.83196      297.90118     -2247.0624      6.5461475     -2240.5162     -12068.819    
    193250   132.49768      263.43657     -2246.2946      5.7888143     -2240.5058     -11288.606    
    193300   145.99072      290.2639      -2246.8902      6.3783242     -2240.5118     -11840.895    
    193350   143.09392      284.50439     -2246.7609      6.2517633     -2240.5091     -13564.139    
    193400   148.79037      295.83026     -2247.0129      6.5006406     -2240.5122     -12234.643    
    193450   155.62485      309.41881     -2247.3066      6.7992385     -2240.5074     -13784.345    
    193500   150.97468      300.17318     -2247.0996      6.5960729     -2240.5035     -13614.641    
    193550   160.72939      319.56784     -2247.5279      7.0222556     -2240.5056     -13902.704    
    193600   153.96437      306.1174      -2247.2238      6.7266926     -2240.4972     -15138.957    
    193650   161.93189      321.9587      -2247.5759      7.0747927     -2240.5011     -11381.371    
    193700   151.12076      300.46362     -2247.0943      6.6024551     -2240.4918     -13125.244    
    193750   149.22928      296.70291     -2247.0126      6.5198165     -2240.4928     -13505.454    
    193800   160.84167      319.79108     -2247.516       7.0271611     -2240.4888     -13825.972    
    193850   152.55487      303.31498     -2247.1482      6.6651115     -2240.483      -10973.48     
    193900   152.94856      304.09772     -2247.1623      6.6823117     -2240.48       -12956.017    
    193950   150.57107      299.37072     -2247.0646      6.5784395     -2240.4861     -12333.824    
    194000   147.10328      292.47593     -2246.9069      6.4269319     -2240.4799     -11569.696    
    194050   150.49854      299.22651     -2247.0572      6.5752704     -2240.4819     -13982.977    
    194100   143.65481      285.61956     -2246.7571      6.2762683     -2240.4809     -12083.823    
    194150   149.14605      296.53745     -2246.9918      6.5161805     -2240.4756     -16339.649    
    194200   151.97829      302.16859     -2247.1215      6.6399206     -2240.4816     -12963.93     
    194250   151.01772      300.25877     -2247.0811      6.5979536     -2240.4832     -12440.394    
    194300   148.23963      294.73526     -2246.9531      6.4765789     -2240.4766     -13114.201    
    194350   161.88611      321.86768     -2247.5495      7.0727926     -2240.4767     -13285.191    
    194400   154.38623      306.95614     -2247.2188      6.7451232     -2240.4736     -11419.337    
    194450   152.56967      303.34441     -2247.1371      6.6657583     -2240.4714     -11874.998    
    194500   158.47018      315.07601     -2247.3971      6.923551      -2240.4736     -12138.313    
    194550   151.58703      301.39068     -2247.0894      6.6228265     -2240.4666     -14488.482    
    194600   161.7712       321.63921     -2247.5367      7.0677723     -2240.4689     -12714.264    
    194650   152.03868      302.28866     -2247.1153      6.642559      -2240.4727     -13323.255    
    194700   155.30409      308.78106     -2247.2578      6.7852244     -2240.4726     -12172.882    
    194750   151.09116      300.40478     -2247.0715      6.6011621     -2240.4703     -12555.11     
    194800   143.09121      284.499       -2246.7356      6.251645      -2240.4839     -12956.199    
    194850   155.06185      308.29944     -2247.2515      6.7746411     -2240.4769     -14807.202    
    194900   145.22702      288.74548     -2246.8188      6.344958      -2240.4738     -14414.432    
    194950   152.15717      302.52425     -2247.1254      6.6477358     -2240.4777     -13018.452    
    195000   142.96046      284.23903     -2246.7209      6.2459323     -2240.475      -13159.01     
    195050   160.1538       318.42343     -2247.474       6.997108      -2240.4769     -13521.393    
    195100   149.00521      296.25741     -2246.9735      6.5100268     -2240.4635     -14703.031    
    195150   150.41104      299.05254     -2247.0393      6.5714478     -2240.4679     -15095.834    
    195200   148.68129      295.61339     -2246.9592      6.495875      -2240.4633     -12023.352    
    195250   152.14825      302.50651     -2247.1101      6.6473461     -2240.4627     -14682.706    
    195300   163.61266      325.30046     -2247.6201      7.1482254     -2240.4718     -15825.313    
    195350   154.44211      307.06726     -2247.2124      6.7475649     -2240.4648     -11986.762    
    195400   142.04817      282.42519     -2246.6918      6.2060746     -2240.4857     -11540.989    
    195450   145.23785      288.76701     -2246.8324      6.3454312     -2240.487      -13012.662    
    195500   154.24815      306.68162     -2247.2271      6.7390909     -2240.488      -12403.471    
    195550   155.21847      308.61084     -2247.2651      6.7814839     -2240.4836     -10509.273    
    195600   149.12596      296.4975      -2246.9964      6.5153028     -2240.4811     -14693.408    
    195650   147.49418      293.25314     -2246.9291      6.4440103     -2240.4851     -12134.868    
    195700   144.49365      287.28738     -2246.8048      6.3129174     -2240.4919     -11904.818    
    195750   152.16342      302.53668     -2247.1362      6.6480089     -2240.4882     -13388.069    
    195800   133.58454      265.5975      -2246.3201      5.8362992     -2240.4838     -10018.097    
    195850   147.55272      293.36952     -2246.9356      6.4465678     -2240.489      -13520.377    
    195900   143.6676       285.645       -2246.7595      6.2768273     -2240.4827     -13394.498    
    195950   155.19602      308.56621     -2247.2627      6.7805033     -2240.4822     -12536.764    
    196000   147.89884      294.0577      -2246.9443      6.4616899     -2240.4827     -13297.634    
    196050   154.85624      307.89063     -2247.2445      6.765658      -2240.4789     -14984.935    
    196100   143.67044      285.65063     -2246.7509      6.2769512     -2240.474      -10557.156    
    196150   159.41071      316.94601     -2247.4454      6.9646428     -2240.4808     -15531.593    
    196200   147.08027      292.43018     -2246.8981      6.4259264     -2240.4722     -13477.28     
    196250   142.01252      282.3543      -2246.6714      6.2045169     -2240.4669     -12069.302    
    196300   148.19234      294.64124     -2246.9418      6.4745128     -2240.4673     -13599.851    
    196350   144.26254      286.82788     -2246.7713      6.3028203     -2240.4685     -12133.761    
    196400   150.01325      298.26163     -2247.0246      6.5540681     -2240.4706     -14135.112    
    196450   148.11564      294.48874     -2246.9385      6.4711617     -2240.4673     -12717.705    
    196500   145.52674      289.34141     -2246.828       6.3580531     -2240.4699     -14505.285    
    196550   144.56821      287.43562     -2246.7775      6.316175      -2240.4613     -15008.737    
    196600   143.79808      285.90441     -2246.7482      6.2825277     -2240.4656     -14416.117    
    196650   144.59782      287.49449     -2246.7727      6.3174685     -2240.4552     -14592.713    
    196700   153.45725      305.10913     -2247.1605      6.7045365     -2240.456      -14008.858    
    196750   140.46105      279.26961     -2246.589       6.1367331     -2240.4523     -11486.625    
    196800   154.29051      306.76584     -2247.1911      6.7409415     -2240.4502     -14508.387    
    196850   150.20898      298.6508      -2247.0058      6.5626199     -2240.4432     -11435.142    
    196900   141.63002      281.5938      -2246.6228      6.1878054     -2240.4349     -14432.49     
    196950   141.88551      282.10177     -2246.6318      6.1989677     -2240.4328     -15375.314    
    197000   156.78266      311.72082     -2247.2879      6.8498233     -2240.4381     -12379.667    
    197050   161.01024      320.12623     -2247.47        7.0345258     -2240.4355     -12343.499    
    197100   153.46433      305.1232      -2247.1439      6.7048458     -2240.439      -14034.574    
    197150   155.76267      309.69284     -2247.241       6.80526       -2240.4357     -13595.191    
    197200   154.29779      306.7803      -2247.1734      6.7412593     -2240.4322     -13149.569    
    197250   146.46383      291.20455     -2246.8256      6.3989942     -2240.4266     -14438.084    
    197300   159.53707      317.19723     -2247.3937      6.9701631     -2240.4235     -15861.929    
    197350   150.16031      298.55403     -2246.9841      6.5604934     -2240.4236     -12968.94     
    197400   158.4084       314.95316     -2247.3484      6.9208515     -2240.4275     -12210.528    
    197450   153.07487      304.34886     -2247.1129      6.6878301     -2240.4251     -13230.823    
    197500   158.52615      315.18728     -2247.3459      6.9259961     -2240.4199     -14847.544    
    197550   172.95651      343.87823     -2247.985       7.5564575     -2240.4286     -10778.261    
    197600   149.74984      297.73792     -2246.9555      6.5425599     -2240.4129     -13307.281    
    197650   153.53045      305.25466     -2247.1196      6.7077346     -2240.4119     -11538.792    
    197700   148.5622       295.37661     -2246.9065      6.490672      -2240.4158     -11804.292    
    197750   147.1016       292.47259     -2246.8411      6.4268585     -2240.4142     -10039.263    
    197800   150.80507      299.83597     -2247.0012      6.5886629     -2240.4125     -12002.748    
    197850   171.11651      340.21988     -2247.89        7.4760681     -2240.4139     -14309.888    
    197900   153.25933      304.7156      -2247.1111      6.695889      -2240.4152     -10574.389    
    197950   136.42944      271.25383     -2246.3636      5.9605926     -2240.4031     -12533.776    
    198000   139.65365      277.66431     -2246.5107      6.101458      -2240.4092     -13567.083    
    198050   147.3403       292.94718     -2246.8431      6.4372872     -2240.4058     -14446.359    
    198100   139.90233      278.15875     -2246.5088      6.1123229     -2240.3965     -12926.615    
    198150   153.14049      304.47932     -2247.0931      6.690697      -2240.4024     -12302.067    
    198200   169.61404      337.23262     -2247.8171      7.4104254     -2240.4067     -10846.905    
    198250   151.1158       300.45377     -2247.002       6.6022386     -2240.3998     -16101.7      
    198300   142.77323      283.86677     -2246.6247      6.2377521     -2240.3869     -15091.566    
    198350   154.02184      306.23166     -2247.1265      6.7292033     -2240.3973     -13901.546    
    198400   154.53673      307.25539     -2247.1392      6.7516989     -2240.3875     -12468.22     
    198450   152.74446      303.69192     -2247.0609      6.6733945     -2240.3875     -15106.828    
    198500   143.64436      285.59878     -2246.6629      6.2758118     -2240.3871     -14402.36     
    198550   154.98565      308.14794     -2247.1524      6.771312      -2240.3811     -11962.682    
    198600   146.65468      291.58402     -2246.7882      6.4073327     -2240.3809     -12460.796    
    198650   153.48369      305.16169     -2247.0807      6.7056916     -2240.375      -15748.265    
    198700   163.43274      324.94274     -2247.5126      7.1403647     -2240.3722     -12539.48     
    198750   181.38383      360.63374     -2248.3066      7.9246468     -2240.3819     -12304.345    
    198800   156.78597      311.7274      -2247.2222      6.8499678     -2240.3722     -11109.875    
    198850   150.04783      298.33039     -2246.9305      6.5555789     -2240.375      -11504.197    
    198900   161.14506      320.3943      -2247.4171      7.0404163     -2240.3767     -11447.712    
    198950   159.73257      317.58593     -2247.3482      6.9787046     -2240.3695     -11982.167    
    199000   165.45824      328.96991     -2247.6083      7.2288586     -2240.3794     -14443.614    
    199050   146.24167      290.76285     -2246.756       6.3892881     -2240.3667     -15356.485    
    199100   158.21846      314.57553     -2247.2866      6.9125534     -2240.374      -13112.848    
    199150   143.45217      285.21668     -2246.6316      6.2674153     -2240.3642     -14686.82     
    199200   159.20744      316.54184     -2247.3264      6.9557615     -2240.3707     -15038.436    
    199250   154.20678      306.59935     -2247.1053      6.7372831     -2240.368      -13260.676    
    199300   153.27077      304.73835     -2247.0697      6.696389      -2240.3733     -12217.333    
    199350   155.04975      308.27539     -2247.1458      6.7741128     -2240.3717     -13543.592    
    199400   162.60501      323.29701     -2247.4838      7.1042012     -2240.3796     -12817.894    
    199450   146.15171      290.58399     -2246.7532      6.3853579     -2240.3679     -14636.159    
    199500   146.99216      292.25501     -2246.7988      6.4220772     -2240.3767     -9011.3512    
    199550   146.41687      291.11119     -2246.7666      6.3969428     -2240.3697     -17770.043    
    199600   155.75724      309.68204     -2247.1849      6.8050228     -2240.3798     -11927.062    
    199650   153.92608      306.04127     -2247.1006      6.7250197     -2240.3756     -13407.419    
    199700   152.03948      302.29026     -2247.027       6.642594      -2240.3844     -13127.922    
    199750   159.78579      317.69175     -2247.3652      6.9810299     -2240.3842     -14510.086    
    199800   154.94757      308.07223     -2247.154       6.7696484     -2240.3843     -12498.751    
    199850   159.76711      317.6546      -2247.3623      6.9802136     -2240.3821     -14131.732    
    199900   149.16007      296.56532     -2246.9057      6.516793      -2240.3889     -12497.124    
    199950   164.8931       327.84627     -2247.5937      7.2041676     -2240.3896     -12729.144    
    200000   146.6521       291.57889     -2246.7992      6.40722       -2240.392      -12890.117    
colvars: Saving collective variables state to "out.colvars.state".
colvars:   Writing TI PMF to file "out.metadynamics1.ti.pmf".
Loop time of 1001 on 4 procs for 200000 steps with 339 atoms

Performance: 8.631 ns/day, 2.781 hours/ns, 199.800 timesteps/s, 67.732 katom-step/s
139.3% CPU use with 4 MPI tasks x 1 OpenMP threads

MPI task timing breakdown:
Section |  min time  |  avg time  |  max time  |%varavg| %total
---------------------------------------------------------------
Pair    | 743.33     | 848.11     | 970.32     | 317.7 | 84.73
Neigh   | 0.33516    | 1.2002     | 1.8035     |  52.5 |  0.12
Comm    | 10.471     | 114.94     | 204.22     | 711.0 | 11.48
Output  | 4.1076     | 4.872      | 5.7625     |  34.0 |  0.49
Modify  | 11.049     | 29.292     | 81.033     | 552.3 |  2.93
Other   |            | 2.591      |            |       |  0.26

Nlocal:          84.75 ave         112 max          26 min
Histogram: 1 0 0 0 0 0 0 0 1 2
Nghost:        1121.25 ave        1570 max         702 min
Histogram: 1 0 0 1 0 1 0 0 0 1
Neighs:              0 ave           0 max           0 min
Histogram: 4 0 0 0 0 0 0 0 0 0
FullNghs:      14420.5 ave       20862 max        3254 min
Histogram: 1 0 0 0 0 1 0 0 0 2

Total # of neighbors = 57682
Ave neighs/atom = 170.15339
Neighbor list builds = 2205
Dangerous builds = 0
write_data final.data
System init for write_data ...
Generated 0 of 6 mixed pair_coeff terms from geometric mixing rule

CITE-CITE-CITE-CITE-CITE-CITE-CITE-CITE-CITE-CITE-CITE-CITE-CITE

Your simulation uses code contributions which should be cited:

- Colvars module (Fiorin2013, plus other works listed for specific features)


% Colvars module:
% Colvars-LAMMPS interface:
% Metadynamics colvar bias implementation:
% Optimal rotation via flexible fitting:
% distance colvar component:

@article{Fiorin2013,
  author = {Fiorin, Giacomo and Klein, Michael L.{} and H\'enin, J\'er\^ome},
  title = {Using collective variables to drive molecular dynamics simulations},
  journal = {Mol. Phys.},
  year = {2013},
  volume = {111},
  number = {22-23},
  pages = {3345--3362},
  publisher = {Taylor & Francis},
  doi = {10.1080/00268976.2013.813594},
  url = {https://doi.org/10.1080/00268976.2013.813594}
}


% Internal-forces free energy estimator:

@article{Henin2010,
  author = {H\'enin, J\'er\^ome and Fiorin, Giacomo and Chipot, Christophe and Klein, Michael L.},
  title = {Exploring multidimensional free energy landscapes using time-dependent biases on collective variables},
  journal = {J. Chem. Theory Comput.},
  year = {2010},
  volume = {6},
  pages = {35-47},
  number = {1},
  doi = {10.1021/ct9004432},
  pmid = {26614317},
  url = {https://doi.org/10.1021/ct9004432}
}


% LAMMPS engine:

@article{Thompson2022,
  title = {{LAMMPS} - a flexible simulation tool for particle-based materials modeling at the atomic, meso, and continuum scales},
  author = {Thompson, Aidan P. and Aktulga, H. Metin and Berger, Richard and Bolintineanu, Dan S. and Brown, W. Michael and Crozier, Paul S. and {in't Veld}, Pieter J. and Kohlmeyer, Axel and Moore, Stan G. and Nguyen, Trung Dac and Shan, Ray and Stevens, Mark J. and Tranchida, Julien and Trott, Christian and Plimpton, Steven J.},
  journal = {Comp. Phys. Comm.},
  volume = {271},
  pages = {108171},
  year = {2022},
  doi = {10.1016/j.cpc.2021.108171},
  url = {https://doi.org/10.1016/j.cpc.2021.108171}
}

CITE-CITE-CITE-CITE-CITE-CITE-CITE-CITE-CITE-CITE-CITE-CITE-CITE

Total wall time: 0:17:03
