 # File generated with Atomsk by baoergen22b on 2025-10-21 22:10:58
  
         338  atoms
           4  atom types
 
      0.000000000000      11.328000000000  xlo xhi
      0.000000000000      12.015000000000  ylo yhi
      0.000000000000      32.000000000000  zlo zhi
 
Masses
 
            1   55.84500000             # Fe
            2   15.99900000             # O
            3   1.00800000              # H
            4   35.45000000             # Cl
 
Atoms # atomic
 
         1    1        0.000000000000       0.000000000000       0.000000000000
         2    1        0.000000000000       2.002540050000       2.002880000000
         3    1       11.328000000000       0.000000000000       4.005120000000
         4    1        0.000000000000       2.002540050000       6.008000000000
         5    1        0.000000000000       0.000000000000       8.009920000000
         6    1        0.000000000000       2.002540050000      10.011840000000
         7    1        0.000000000000       0.000000000000      12.015040000000
         8    1        1.416000000000       2.002540050000       0.000000000000
         9    1        1.416000000000       0.000000000000       2.002880000000
        10    1        1.416000000000       2.002540050000       4.005120000000
        11    1        1.416000000000       0.000000000000       6.008000000000
        12    1        1.416000000000       2.002540050000       8.009920000000
        13    1        1.416000000000       0.000000000000      10.011840000000
        14    1        1.416000000000       2.002540050000      12.015040000000
        15    1        2.832000000000       0.000000000000       0.000000000000
        16    1        2.832000000000       2.002540050000       2.002880000000
        17    1        2.832000000000       0.000000000000       4.005120000000
        18    1        2.832000000000       2.002540050000       6.008000000000
        19    1        2.832000000000       0.000000000000       8.009920000000
        20    1        2.832000000000       2.002540050000      10.011840000000
        21    1        2.832000000000       0.000000000000      12.015040000000
        22    1        4.248000000000       2.002540050000       0.000000000000
        23    1        4.248000000000       0.000000000000       2.002880000000
        24    1        4.248000000000       2.002540050000       4.005120000000
        25    1        4.248000000000       0.000000000000       6.008000000000
        26    1        4.248000000000       2.002540050000       8.009920000000
        27    1        4.248000000000       0.000000000000      10.011840000000
        28    1        4.248000000000       2.002540050000      12.015040000000
        29    1        5.664000000000       0.000000000000       0.000000000000
        30    1        5.664000000000       2.002540050000       2.002880000000
        31    1        5.664000000000       0.000000000000       4.005120000000
        32    1        5.664000000000       2.002540050000       6.008000000000
        33    1        5.664000000000       0.000000000000       8.009920000000
        34    1        5.664000000000       2.002540050000      10.011840000000
        35    1        5.664000000000       0.000000000000      12.015040000000
        36    1        7.080000000000       2.002540050000       0.000000000000
        37    1        7.080000000000       0.000000000000       2.002880000000
        38    1        7.080000000000       2.002540050000       4.005120000000
        39    1        7.080000000000       0.000000000000       6.008000000000
        40    1        7.080000000000       2.002540050000       8.009920000000
        41    1        7.080000000000       0.000000000000      10.011840000000
        42    1        7.080000000000       2.002540050000      12.015040000000
        43    1        8.496000000000       0.000000000000       0.000000000000
        44    1        8.496000000000       2.002540050000       2.002880000000
        45    1        8.496000000000       0.000000000000       4.005120000000
        46    1        8.496000000000       2.002540050000       6.008000000000
        47    1        8.496000000000       0.000000000000       8.009920000000
        48    1        8.496000000000       2.002540050000      10.011840000000
        49    1        8.496000000000       0.000000000000      12.015040000000
        50    1        9.912000000000       2.002540050000       0.000000000000
        51    1        9.912000000000       0.000000000000       2.002880000000
        52    1        9.912000000000       2.002540050000       4.005120000000
        53    1        9.912000000000       0.000000000000       6.008000000000
        54    1        9.912000000000       2.002540050000       8.009920000000
        55    1        9.912000000000       0.000000000000      10.011840000000
        56    1        9.912000000000       2.002540050000      12.015040000000
        57    1        0.000000000000       4.004959950000       0.000000000000
        58    1        0.000000000000       6.007500000000       2.002880000000
        59    1        0.000000000000       4.004959950000       4.005120000000
        60    1        0.000000000000       6.007500000000       6.008000000000
        61    1        0.000000000000       4.004959950000       8.009920000000
        62    1       11.328000000000       6.007500000000      10.011840000000
        63    1        0.000000000000       4.004959950000      12.015040000000
        64    1        1.416000000000       6.007500000000       0.000000000000
        65    1        1.416000000000       4.004959950000       2.002880000000
        66    1        1.416000000000       6.007500000000       4.005120000000
        67    1        1.416000000000       4.004959950000       6.008000000000
        68    1        1.416000000000       6.007500000000       8.009920000000
        69    1        1.416000000000       4.004959950000      10.011840000000
        70    1        1.416000000000       6.007500000000      12.015040000000
        71    1        2.832000000000       4.004959950000       0.000000000000
        72    1        2.832000000000       6.007500000000       2.002880000000
        73    1        2.832000000000       4.004959950000       4.005120000000
        74    1        2.832000000000       6.007500000000       6.008000000000
        75    1        2.832000000000       4.004959950000       8.009920000000
        76    1        2.832000000000       6.007500000000      10.011840000000
        77    1        2.832000000000       4.004959950000      12.015040000000
        78    1        4.248000000000       6.007500000000       0.000000000000
        79    1        4.248000000000       4.004959950000       2.002880000000
        80    1        4.248000000000       6.007500000000       4.005120000000
        81    1        4.248000000000       4.004959950000       6.008000000000
        82    1        4.248000000000       6.007500000000       8.009920000000
        83    1        4.248000000000       4.004959950000      10.011840000000
        84    1        4.248000000000       6.007500000000      12.015040000000
        85    1        5.664000000000       4.004959950000       0.000000000000
        86    1        5.664000000000       6.007500000000       2.002880000000
        87    1        5.664000000000       4.004959950000       4.005120000000
        88    1        5.664000000000       6.007500000000       6.008000000000
        89    1        5.664000000000       4.004959950000       8.009920000000
        90    1        5.664000000000       6.007500000000      10.011840000000
        91    1        5.664000000000       4.004959950000      12.015040000000
        92    1        7.080000000000       6.007500000000       0.000000000000
        93    1        7.080000000000       4.004959950000       2.002880000000
        94    1        7.080000000000       6.007500000000       4.005120000000
        95    1        7.080000000000       4.004959950000       6.008000000000
        96    1        7.080000000000       6.007500000000       8.009920000000
        97    1        7.080000000000       4.004959950000      10.011840000000
        98    1        7.080000000000       6.007500000000      12.015040000000
        99    1        8.496000000000       4.004959950000       0.000000000000
       100    1        8.496000000000       6.007500000000       2.002880000000
       101    1        8.496000000000       4.004959950000       4.005120000000
       102    1        8.496000000000       6.007500000000       6.008000000000
       103    1        8.496000000000       4.004959950000       8.009920000000
       104    1        8.496000000000       6.007500000000      10.011840000000
       105    1        8.496000000000       4.004959950000      12.015040000000
       106    1        9.912000000000       6.007500000000       0.000000000000
       107    1        9.912000000000       4.004959950000       2.002880000000
       108    1        9.912000000000       6.007500000000       4.005120000000
       109    1        9.912000000000       4.004959950000       6.008000000000
       110    1        9.912000000000       6.007500000000       8.009920000000
       111    1        9.912000000000       4.004959950000      10.011840000000
       112    1        9.912000000000       6.007500000000      12.015040000000
       113    1       11.328000000000       8.010040050000       0.000000000000
       114    1        0.000000000000      10.012459950000       2.002880000000
       115    1       11.328000000000       8.010040050000       4.005120000000
       116    1        0.000000000000      10.012459950000       6.008000000000
       117    1       11.328000000000       8.010040050000       8.009920000000
       118    1        0.000000000000      10.012459950000      10.011840000000
       119    1        0.000000000000       8.010040050000      12.015040000000
       120    1        1.416000000000      10.012459950000       0.000000000000
       121    1        1.416000000000       8.010040050000       2.002880000000
       122    1        1.416000000000      10.012459950000       4.005120000000
       123    1        1.416000000000       8.010040050000       6.008000000000
       124    1        1.416000000000      10.012459950000       8.009920000000
       125    1        1.416000000000       8.010040050000      10.011840000000
       126    1        1.416000000000      10.012459950000      12.015040000000
       127    1        2.832000000000       8.010040050000       0.000000000000
       128    1        2.832000000000      10.012459950000       2.002880000000
       129    1        2.832000000000       8.010040050000       4.005120000000
       130    1        2.832000000000      10.012459950000       6.008000000000
       131    1        2.832000000000       8.010040050000       8.009920000000
       132    1        2.832000000000      10.012459950000      10.011840000000
       133    1        2.832000000000       8.010040050000      12.015040000000
       134    1        4.248000000000      10.012459950000       0.000000000000
       135    1        4.248000000000       8.010040050000       2.002880000000
       136    1        4.248000000000      10.012459950000       4.005120000000
       137    1        4.248000000000       8.010040050000       6.008000000000
       138    1        4.248000000000      10.012459950000       8.009920000000
       139    1        4.248000000000       8.010040050000      10.011840000000
       140    1        4.248000000000      10.012459950000      12.015040000000
       141    1        5.664000000000       8.010040050000       0.000000000000
       142    1        5.664000000000      10.012459950000       2.002880000000
       143    1        5.664000000000       8.010040050000       4.005120000000
       144    1        5.664000000000      10.012459950000       6.008000000000
       145    1        5.664000000000       8.010040050000       8.009920000000
       146    1        5.664000000000      10.012459950000      10.011840000000
       147    1        5.664000000000       8.010040050000      12.015040000000
       148    1        7.080000000000      10.012459950000       0.000000000000
       149    1        7.080000000000       8.010040050000       2.002880000000
       150    1        7.080000000000      10.012459950000       4.005120000000
       151    1        7.080000000000       8.010040050000       6.008000000000
       152    1        7.080000000000      10.012459950000       8.009920000000
       153    1        7.080000000000       8.010040050000      10.011840000000
       154    1        7.080000000000      10.012459950000      12.015040000000
       155    1        8.496000000000       8.010040050000       0.000000000000
       156    1        8.496000000000      10.012459950000       2.002880000000
       157    1        8.496000000000       8.010040050000       4.005120000000
       158    1        8.496000000000      10.012459950000       6.008000000000
       159    1        8.496000000000       8.010040050000       8.009920000000
       160    1        8.496000000000      10.012459950000      10.011840000000
       161    1        8.496000000000       8.010040050000      12.015040000000
       162    1        9.912000000000      10.012459950000       0.000000000000
       163    1        9.912000000000       8.010040050000       2.002880000000
       164    1        9.912000000000      10.012459950000       4.005120000000
       165    1        9.912000000000       8.010040050000       6.008000000000
       166    1        9.912000000000      10.012459950000       8.009920000000
       167    1        9.912000000000       8.010040050000      10.011840000000
       168    1        9.912000000000      10.012459950000      12.015040000000
       169    2        0.647961600000       7.766375850000      21.082880000000
       170    2        2.764824960000       0.751297950000      18.468480000000
       171    2        0.629723520000       4.121986050000      17.897920000000
       172    2        9.501699840000      11.481654150000      24.216960000000
       173    2        0.537173760000       3.554157150000      22.096640000000
       174    2        4.363885440000       6.266663550000      21.439680000000
       175    2       10.135274880000       7.009551000000      22.859840000000
       176    2        4.165192320000       3.169436850000      18.206720000000
       177    2        6.145553280000       3.488314950000      23.842560000000
       178    2        2.938256640000       4.084258950000      15.649280000000
       179    2       10.714475520000       2.591395200000      19.781120000000
       180    2        8.143472640000       6.245877600000      20.713600000000
       181    2        7.422672000000       4.251267450000      17.792320000000
       182    2        2.510284800000      11.873343150000      16.101120000000
       183    2        1.396515840000       6.144831450000      14.986560000000
       184    2        1.661024640000      10.187518500000      21.792640000000
       185    2        8.493281280000       2.610859500000      15.775040000000
       186    2        4.184449920000       8.115651900000      17.565440000000
       187    2        2.100664320000       5.548286700000      21.867840000000
       188    2        7.929713280000       7.233030000000      14.585600000000
       189    2        2.176335360000       0.728709750000      24.844480000000
       190    2        0.587923200000      10.342151550000      24.324800000000
       191    2        9.969093120000       5.769723150000      15.333120000000
       192    2        0.354226560000       6.781386150000      18.468160000000
       193    2        3.799524480000       2.429673300000      22.992960000000
       194    2        7.015430400000      10.919472300000      18.672000000000
       195    2        9.003494400000       6.709176000000      25.563840000000
       196    2        2.389188480000       8.443901700000      15.796480000000
       197    2        5.092275840000       6.264621000000      24.133440000000
       198    2        2.824636800000       1.846465200000      14.511040000000
       199    2        7.199397120000       0.227083500000      20.886080000000
       200    2        4.845438720000       1.765243800000      20.599040000000
       201    2        2.308306560000       6.195654900000      24.478080000000
       202    2        6.812999040000       9.014854500000      21.557120000000
       203    2        7.860046080000       3.966872400000      22.001600000000
       204    2        5.301390720000       5.290564950000      15.872000000000
       205    2        5.488642560000       2.517142500000      15.871360000000
       206    2        7.888026240000       2.538889650000      19.709120000000
       207    2        6.431018880000       8.449789050000      16.164160000000
       208    2        4.078080000000       8.897948550000      21.250240000000
       209    2        9.076673280000       6.295259250000      18.231040000000
       210    2        0.245930880000       7.878956400000      25.245120000000
       211    2        0.203224320000       8.748481950000      16.699840000000
       212    2        8.496000000000       8.739831150000      17.822720000000
       213    2        0.006683520000      11.928492000000      14.966720000000
       214    2        8.485804800000       9.133803000000      23.851840000000
       215    2        4.722076800000      10.574761950000      15.566080000000
       216    2        7.675852800000      11.993252850000      16.192320000000
       217    2        0.360910080000       0.157636800000      19.940480000000
       218    2       11.139162240000       2.512937250000      15.680320000000
       219    2       10.487575680000      11.084438250000      17.918720000000
       220    2        5.062143360000       5.787505350000      18.867840000000
       221    2        9.834856320000       9.550723500000      14.871360000000
       222    2        9.883680000000       4.015773450000      23.890240000000
       223    2        9.651002880000      11.211677100000      21.400640000000
       224    2        4.457681280000      10.205420850000      18.937280000000
       225    3        7.196791680000       6.999097950000      14.170560000000
       226    3        1.094511360000       8.671826250000      21.224000000000
       227    3        6.027402240000       5.667835950000      18.760640000000
       228    3       11.150716800000      11.783951550000      19.149440000000
       229    3        8.813410560000      10.067488650000      24.082880000000
       230    3        0.220782720000       2.584066050000      14.812160000000
       231    3        9.873031680000       4.800593250000      24.484480000000
       232    3        5.371057920000       9.907809300000      15.913920000000
       233    3        9.498754560000      10.974741300000      17.809280000000
       234    3        1.876143360000       0.619733700000      18.857600000000
       235    3        3.074872320000       1.728477900000      18.589120000000
       236    3        0.185552640000       3.738467250000      17.078720000000
       237    3        0.657703680000       5.133528900000      17.800000000000
       238    3       10.457556480000      11.473483950000      24.375360000000
       239    3        9.005193600000       0.170973450000      24.773440000000
       240    3        0.073405440000       3.287063700000      21.224960000000
       241    3       11.155474560000       3.711193200000      22.727680000000
       242    3        4.732385280000       6.181957800000      22.369600000000
       243    3        3.495707520000       5.838208650000      21.488000000000
       244    3        9.641940480000       6.542407800000      22.117760000000
       245    3        9.566949120000       7.736098050000      23.089280000000
       246    3        4.489739520000       4.144814550000      18.407360000000
       247    3        4.725588480000       2.915079300000      17.407040000000
       248    3        6.605356800000       3.068751150000      24.672320000000
       249    3        5.235461760000       3.086293050000      23.635200000000
       250    3        3.853219200000       4.471382250000      15.762560000000
       251    3        2.478906240000       4.046171400000      16.519360000000
       252    3        9.671280000000       2.539850850000      19.877120000000
       253    3       10.922684160000       3.174002550000      18.999040000000
       254    3        7.303048320000       6.749906850000      20.788160000000
       255    3        7.842600960000       5.361453450000      21.198080000000
       256    3        7.688653440000       3.773430900000      16.966400000000
       257    3        7.523377920000       3.520875600000      18.537280000000
       258    3        2.513909760000       0.279709200000      17.079360000000
       259    3        3.385599360000      11.353333950000      15.982080000000
       260    3        1.726047360000       7.014717450000      15.280320000000
       261    3        2.156171520000       5.567510700000      15.277760000000
       262    3        1.283802240000      10.854711450000      21.147840000000
       263    3        1.194650880000      10.364619600000      22.648640000000
       264    3        8.372411520000       2.515820850000      14.804480000000
       265    3        9.466469760000       2.653512750000      15.813440000000
       266    3        4.504126080000       7.287217650000      17.996800000000
       267    3        4.287194880000       8.944446600000      18.096640000000
       268    3        1.442960640000       4.750610850000      21.936960000000
       269    3        1.734883200000       6.274593450000      21.275200000000
       270    3        8.672603520000       6.719508900000      15.054720000000
       271    3        7.292626560000       7.500844350000      15.312000000000
       272    3        2.830074240000       1.105620300000      24.172160000000
       273    3        2.613029760000       1.034731800000      25.644160000000
       274    3        0.500131200000       9.466017750000      24.817600000000
       275    3        1.228068480000      10.906135650000      24.813120000000
       276    3        9.818657280000       4.822460550000      15.002880000000
       277    3       10.969468800000       5.873052150000      15.433600000000
       278    3        0.589395840000       6.992369550000      19.450240000000
       279    3       10.699975680000       6.509606850000      18.474880000000
       280    3        4.131434880000       2.350975050000      22.022080000000
       281    3        3.039642240000       3.039674850000      22.856320000000
       282    3        7.204721280000      11.503040850000      17.924480000000
       283    3        6.046320000000      10.658025900000      18.729920000000
       284    3        9.550750080000       7.035263100000      26.320640000000
       285    3        8.859968640000       7.544578950000      25.019520000000
       286    3        3.136949760000       8.313899400000      16.475200000000
       287    3        2.537358720000       9.130438800000      15.085760000000
       288    3        5.818287360000       6.926046750000      24.164480000000
       289    3        5.465873280000       5.409513450000      24.366080000000
       290    3        2.568284160000       1.077745500000      15.134400000000
       291    3        3.042587520000       2.646544050000      15.123520000000
       292    3        7.123952640000      11.780587350000      20.003840000000
       293    3        8.121383040000      11.963695950000      21.152320000000
       294    3        5.647914240000       1.255086900000      20.872640000000
       295    3        5.042772480000       2.321057700000      19.770560000000
       296    3        3.294069120000       6.294298050000      24.575360000000
       297    3        2.018083200000       6.135339600000      23.519040000000
       298    3        5.819193600000       8.977608000000      21.495360000000
       299    3        7.050887040000       9.920665350000      21.154240000000
       300    3        7.025059200000       3.667939200000      22.582720000000
       301    3        8.519675520000       3.816084150000      22.702720000000
       302    3        5.666718720000       5.360732550000      14.961920000000
       303    3        5.741483520000       4.490726400000      16.119040000000
       304    3        5.428717440000       2.616146100000      14.900800000000
       305    3        6.107038080000       1.769569200000      15.988480000000
       306    3        7.819718400000       3.102873750000      20.557120000000
       307    3        7.495284480000       1.639206450000      19.919040000000
       308    3        5.731175040000       8.199756900000      16.781120000000
       309    3        7.279486080000       8.707030200000      16.790400000000
       310    3        4.004448000000       7.895777400000      21.296320000000
       311    3        3.429778560000       9.327484800000      21.817600000000
       312    3        8.630689920000       6.276275550000      19.120000000000
       313    3        8.683025280000       5.523055200000      17.704640000000
       314    3       10.726596480000       7.456028400000      24.914240000000
       315    3        0.921192960000       7.219332900000      24.910720000000
       316    3        1.175733120000       8.877042450000      16.440320000000
       317    3        0.312086400000       8.002710900000      17.412800000000
       318    3        7.874885760000       9.174894300000      18.440000000000
       319    3        8.775461760000       7.820203050000      18.085120000000
       320    3       10.731127680000      11.250725850000      15.378240000000
       321    3        7.856534400000       9.180781650000      23.094720000000
       322    3        5.298785280000      11.168663400000      15.024960000000
       323    3        7.380305280000      11.716787700000      15.328320000000
       324    3        8.259811200000       0.748774800000      16.095040000000
       325    3       10.511817600000       9.129838050000      15.523200000000
       326    3        0.076464000000       1.179152100000      19.975680000000
       327    3       11.249496960000       1.524823650000      15.780480000000
       328    3        0.857303040000      11.681343450000      15.497280000000
       329    3       10.811216640000      10.203378300000      17.714560000000
       330    3        4.875571200000       5.904771750000      19.853440000000
       331    3        8.963959680000       9.212501250000      15.243200000000
       332    3        9.585187200000       3.234438000000      24.463360000000
       333    3        9.628120320000      11.331466650000      22.401600000000
       334    3       10.503434880000      11.503161000000      20.998400000000
       335    3        0.085866240000       7.636493700000      21.883520000000
       336    3        4.321178880000       9.658137600000      19.868480000000
       337    3        3.857750400000      10.931247000000      18.918400000000
       338    4        9.363271680000       1.834089750000      21.692160000000
