LAMMPS (2 Aug 2023)
OMP_NUM_THREADS environment is not set. Defaulting to 1 thread. (src/comm.cpp:98)
  using 1 OpenMP thread(s) per MPI task
Loaded 1 plugins from /work/home/baoergen22b/apprepo/deepmd/v2.2.9-dtk23.10/app/lib/deepmd_lmp
package gpu 4
# system
units        metal
dimension    3
atom_style   atomic
boundary     p p f

# 设置原子映射
atom_modify map array

# initial stucture
read_data POSCAR.lmp
Reading data file ...
  orthogonal box = (0 0 0) to (11.328 12.015 32)
  1 by 1 by 4 MPI processor grid
  reading atoms ...
  338 atoms
  read_data CPU = 0.034 seconds
mass      1 55.845
mass      2 15.999
mass      3 1.008
mass      4  35.450

# potential
pair_style deepmd graph-compress.pb
Summary of lammps deepmd module ...
  >>> Info of deepmd-kit:
  installed to:       /work/home/wys974137909/shangcheng/deepmd-kit/20240715/deepmd-kit_v2.2.9/install
  source:             v2.2.9
  source branch:      HEAD
  source commit:      be43748
  source commit at:   2024-02-04 13:44:12 +0800
  support model ver.: 1.1 
  build variant:      rocm
  build with tf inc:  /work/home/wys974137909/shangcheng/miniconda3/envs/deepmd-kit-v2.2.9/lib/python3.8/site-packages/tensorflow/include;/work/home/wys974137909/shangcheng/miniconda3/envs/deepmd-kit-v2.2.9/lib/python3.8/site-packages/tensorflow/include
  build with tf lib:  /work/home/wys974137909/shangcheng/miniconda3/envs/deepmd-kit-v2.2.9/lib/python3.8/site-packages/tensorflow/lib/libtensorflow_cc.so
  set tf intra_op_parallelism_threads: 0
  set tf inter_op_parallelism_threads: 0
  >>> Info of lammps module:
  use deepmd-kit at:  /work/home/wys974137909/shangcheng/deepmd-kit/20240715/deepmd-kit_v2.2.9/install
  source:             v2.2.9
  source branch:      HEAD
  source commit:      be43748
  source commit at:   2024-02-04 13:44:12 +0800
  build float prec:   double
  build with tf inc:  /work/home/wys974137909/shangcheng/miniconda3/envs/deepmd-kit-v2.2.9/lib/python3.8/site-packages/tensorflow/include;/work/home/wys974137909/shangcheng/miniconda3/envs/deepmd-kit-v2.2.9/lib/python3.8/site-packages/tensorflow/include
  build with tf lib:  /work/home/wys974137909/shangcheng/miniconda3/envs/deepmd-kit-v2.2.9/lib/python3.8/site-packages/tensorflow/lib/libtensorflow_cc.so
pair_coeff * *

# 固定原子受力、速度为 0
group fixed id 1:146  148:168
167 atoms in group fixed
group mobile subtract all fixed
171 atoms in group mobile
fix freeze_fixed fixed setforce 0.0 0.0 0.0
velocity fixed set 0 0 0

# 在z=27处添加硬性反射墙
fix wall1 mobile wall/reflect zhi 27

# 计算mobile组的温度
compute mTemp mobile temp
thermo 50
thermo_style custom step temp c_mTemp pe ke etotal press
velocity mobile  create 298.15 12345 mom yes rot yes

fix ensemble mobile  nvt temp 298.15 298.15 1
fix meta  all colvars pmf.in tstat ensemble
timestep 0.0005
dump trace all custom 1 md.lammpstrj id type x y z
run 200000

CITE-CITE-CITE-CITE-CITE-CITE-CITE-CITE-CITE-CITE-CITE-CITE-CITE

Your simulation uses code contributions which should be cited:

- GPU package (short-range, long-range and three-body potentials): doi:10.1016/j.cpc.2010.12.021, doi:10.1016/j.cpc.2011.10.012, doi:10.1016/j.cpc.2013.08.002, doi:10.1016/j.commatsci.2014.10.068, doi:10.1016/j.cpc.2016.10.020, doi:10.3233/APC200086

@Article{Brown11,
 author = {W. M. Brown and P. Wang and S. J. Plimpton and A. N. Tharrington},
 title = {Implementing Molecular Dynamics on Hybrid High Performance Computers---Short Range Forces},
 journal = {Comput.\ Phys.\ Commun.},
 year =    2011,
 volume =  182,
 pages =   {898--911},
 doi =     {10.1016/j.cpc.2010.12.021}
}

@Article{Brown12,
 author = {W. M. Brown and A. Kohlmeyer and S. J. Plimpton and A. N. Tharrington},
 title = {Implementing Molecular Dynamics on Hybrid High Performance Computers - Particle-Particle Particle-Mesh},
 journal = {Comput.\ Phys.\ Commun.},
 year =    2012,
 volume =  183,
 doi =     {10.1016/j.cpc.2011.10.012},
 pages =   {449--459}
}

@Article{Brown13,
 author = {W. M. Brown and Y. Masako},
 title = {Implementing Molecular Dynamics on Hybrid High Performance Computers---Three-Body Potentials},
 journal = {Comput.\ Phys.\ Commun.},
 year =    2013,
 volume =  184,
 pages =   {2785--2793},
 doi =     {10.1016/j.cpc.2013.08.002},
}

@Article{Trung15,
 author = {T. D. Nguyen and S. J. Plimpton},
 title = {Accelerating Dissipative Particle Dynamics Simulations for Soft Matter Systems},
 journal = {Comput.\ Mater.\ Sci.},
 year =    2015,
 doi =     {10.1016/j.commatsci.2014.10.068},
 volume =  100,
 pages =   {173--180}
}

@Article{Trung17,
 author = {T. D. Nguyen},
 title = {{GPU}-Accelerated {T}ersoff Potentials for Massively Parallel
    Molecular Dynamics Simulations},
 journal = {Comput.\ Phys.\ Commun.},
 year =    2017,
 doi =     {10.1016/j.cpc.2016.10.020},
 volume =  212,
 pages =   {113--122}
}

@inproceedings{Nikolskiy19,
 author = {V. Nikolskiy and V. Stegailov},
 title = {{GPU} Acceleration of Four-Site Water Models in {LAMMPS}},
 booktitle = {Proceedings of the International Conference on Parallel
    Computing (ParCo 2019), Prague, Czech Republic},
 doi =     {10.3233/APC200086},
 year =    2019
}

- USER-DEEPMD package:

@article{Wang_ComputPhysCommun_2018_v228_p178,
  author = {Wang, Han and Zhang, Linfeng and Han, Jiequn and E, Weinan},
  doi = {10.1016/j.cpc.2018.03.016},
  url = {https://doi.org/10.1016/j.cpc.2018.03.016},
  year = 2018,
  month = {jul},
  publisher = {Elsevier {BV}},
  volume = 228,
  journal = {Comput. Phys. Commun.},
  title = {{DeePMD-kit: A deep learning package for many-body potential energy representation and molecular dynamics}},
  pages = {178--184}
}
@misc{Zeng_JChemPhys_2023_v159_p054801,
  title  = {{DeePMD-kit v2: A software package for deep potential models}},
  author =   {Jinzhe Zeng and Duo Zhang and Denghui Lu and Pinghui Mo and Zeyu Li
         and Yixiao Chen and Mari{\'a}n Rynik and Li'ang Huang and Ziyao Li and 
         Shaochen Shi and Yingze Wang and Haotian Ye and Ping Tuo and Jiabin
         Yang and Ye Ding and Yifan Li and Davide Tisi and Qiyu Zeng and Han 
         Bao and Yu Xia and Jiameng Huang and Koki Muraoka and Yibo Wang and 
         Junhan Chang and Fengbo Yuan and Sigbj{\o}rn L{\o}land Bore and Chun
         Cai and Yinnian Lin and Bo Wang and Jiayan Xu and Jia-Xin Zhu and 
         Chenxing Luo and Yuzhi Zhang and Rhys E A Goodall and Wenshuo Liang
         and Anurag Kumar Singh and Sikai Yao and Jingchao Zhang and Renata
         Wentzcovitch and Jiequn Han and Jie Liu and Weile Jia and Darrin M
         York and Weinan E and Roberto Car and Linfeng Zhang and Han Wang},
  journal =  {J. Chem. Phys.},
  volume =   159,
  issue =    5,  
  year =    2023,
  pages  =   054801,
  doi =      {10.1063/5.0155600},
}

CITE-CITE-CITE-CITE-CITE-CITE-CITE-CITE-CITE-CITE-CITE-CITE-CITE

Generated 0 of 6 mixed pair_coeff terms from geometric mixing rule
Neighbor list info ...
  update: every = 1 steps, delay = 0 steps, check = yes
  max neighbors/atom: 2000, page size: 100000
  master list distance cutoff = 8
  ghost atom cutoff = 8
  binsize = 4, bins = 3 4 8
  1 neighbor lists, perpetual/occasional/extra = 1 0 0
  (1) pair deepmd, perpetual
      attributes: full, newton on
      pair build: full/bin/atomonly
      stencil: full/bin/3d
      bin: standard
colvars: Creating proxy instance
colvars: ----------------------------------------------------------------------
colvars: Initializing the collective variables module, version 2023-05-01.
colvars: Please cite Fiorin et al, Mol Phys 2013:
colvars:   https://doi.org/10.1080/00268976.2013.813594
colvars: as well as all other papers listed below for individual features used.
colvars: This version was built with the C++11 standard or higher.
colvars: Using LAMMPS interface, version "2023-04-12".
colvars: ----------------------------------------------------------------------
colvars: Reading new configuration from file "pmf.in":
colvars: # units = "" [default]
colvars: # smp = on [default]
colvars: # colvarsTrajFrequency = 100 [default]
colvars: # colvarsRestartFrequency = 0 [default]
colvars: # scriptedColvarForces = off [default]
colvars: # scriptingAfterBiases = off [default]
colvars: ----------------------------------------------------------------------
colvars:   Initializing a new collective variable.
colvars:   # name = "d"
colvars:   Initializing a new "distanceZ" component.
colvars:     # name = "" [default]
colvars:     # componentCoeff = 1 [default]
colvars:     # componentExp = 1 [default]
colvars:     # period = 0 [default]
colvars:     # wrapAround = 0 [default]
colvars:     # forceNoPBC = off [default]
colvars:     # scalable = on [default]
colvars:       Initializing atom group "main".
colvars:       # name = "" [default]
colvars:       # centerToOrigin = off [default]
colvars:       # centerToReference = off [default]
colvars:       # rotateToReference = off [default]
colvars:       # atomsOfGroup = "" [default]
colvars:       # indexGroup = "" [default]
colvars:       # psfSegID =  [default]
colvars:       # atomsFile = "" [default]
colvars:       # dummyAtom = ( 0 , 0 , 0 ) [default]
colvars:       # enableFitGradients = on [default]
colvars:       # printAtomIDs = off [default]
colvars:       Atom group "main" defined with 1 atoms requested.
colvars:       Initializing atom group "ref".
colvars:       # name = "" [default]
colvars:       # centerToOrigin = off [default]
colvars:       # centerToReference = off [default]
colvars:       # rotateToReference = off [default]
colvars:       # atomsOfGroup = "" [default]
colvars:       # indexGroup = "" [default]
colvars:       # psfSegID =  [default]
colvars:       # atomsFile = "" [default]
colvars:       # dummyAtom = ( 0 , 0 , 0 ) [default]
colvars:       # enableFitGradients = on [default]
colvars:       # printAtomIDs = off [default]
colvars:       Atom group "ref" defined with 22 atoms requested.
colvars:     # axis = ( 0 , 0 , 1 ) [default]
colvars:     # oneSiteSystemForce = off [default]
colvars:     # oneSiteTotalForce = off [default]
colvars:   All components initialized.
colvars:   # timeStepFactor = 1 [default]
colvars:   # width = 0.05
colvars:   # lowerBoundary = -0.2
colvars:   # upperBoundary = 6
colvars:   # hardLowerBoundary = on
colvars:   # hardUpperBoundary = off [default]
colvars:   # expandBoundaries = off [default]
colvars:   # extendedLagrangian = off [default]
colvars:   # outputValue = on [default]
colvars:   # outputVelocity = off [default]
colvars:   # outputTotalForce = on
colvars:   # outputAppliedForce = on
colvars:   # subtractAppliedForce = off [default]
colvars:   # runAve = off [default]
colvars:   # corrFunc = off [default]
colvars: ----------------------------------------------------------------------
colvars: Collective variables initialized, 1 in total.
colvars: ----------------------------------------------------------------------
colvars:   Initializing a new "metadynamics" instance.
colvars:   # name = "metadynamics1" [default]
colvars:   # colvars = { d }
colvars:   # stepZeroData = off [default]
colvars:   # outputEnergy = off [default]
colvars:   # outputFreq = 0 [default]
colvars:   # timeStepFactor = 1 [default]
colvars:   # writeTISamples = on
colvars:   # writeTIPMF = on
colvars:   # hillWeight = 0.1
colvars:   # newHillFrequency = 300
colvars:   # gaussianSigmas =  [default]
colvars:   # hillWidth = 1
colvars:   Half-widths of the Gaussian hills (sigma's):
colvars:   d: 0.025
colvars:   # multipleReplicas = off [default]
colvars:   # useGrids = on [default]
colvars:   # gridsUpdateFrequency = 300 [default]
colvars:   # rebinGrids = off [default]
colvars:   # writeFreeEnergyFile = on [default]
colvars:   # keepHills = off [default]
colvars:   # keepFreeEnergyFiles = off [default]
colvars:   # writeHillsTrajectory = off [default]
colvars:   # wellTempered = off [default]
colvars:   # biasTemperature = 800
colvars:   # ebMeta = off [default]
colvars: ----------------------------------------------------------------------
colvars: Collective variables biases initialized, 1 in total.
colvars: ----------------------------------------------------------------------
colvars: Collective variables module (re)initialized.
colvars: ----------------------------------------------------------------------
colvars: Re-initialized atom group for variable "d":0/0. 1 atoms: total mass = 55.845, total charge = 4.6388e-310.
colvars: Re-initialized atom group for variable "d":0/1. 22 atoms: total mass = 1228.59, total charge = 8.34985e-309.
colvars: The restart output state file will be "rest.colvars.state".
colvars: The final output state file will be "out.colvars.state".
Per MPI rank memory allocation (min/avg/max) = 3.132 | 3.155 | 3.171 Mbytes
   Step          Temp         c_mTemp         PotEng         KinEng         TotEng         Press     
         0   150.40208      298.15        -2338.2108      6.5516151     -2331.6592     -12178.041    
        50   163.99746      325.10084     -2338.805       7.1438389     -2331.6612     -11862.191    
       100   155.95433      309.15652     -2338.4536      6.7934748     -2331.6601     -10815.969    
       150   148.13808      293.66197     -2338.1166      6.452994      -2331.6637     -8199.0896    
       200   152.82226      302.94765     -2338.327       6.6570398     -2331.67       -10065.284    
       250   166.4435       329.94976     -2338.927       7.2503901     -2331.6766     -12810.32     
       300   169.60033      336.2077      -2339.0652      7.3879036     -2331.6773     -10265.85     
       350   156.74752      310.7289      -2338.5155      6.8280266     -2331.6874     -11825.307    
       400   165.90223      328.87677     -2338.8549      7.226812      -2331.6281     -12401.817    
       450   157.43286      312.0875      -2338.4953      6.8578809     -2331.6374     -12601.966    
       500   168.48503      333.99679     -2338.9806      7.3393205     -2331.6413     -11743.409    
       550   153.02444      303.34846     -2338.3045      6.6658471     -2331.6386     -10500.657    
       600   158.60419      314.40949     -2338.5676      6.9089048     -2331.6587     -11950.401    
       650   155.95764      309.16309     -2338.3494      6.7936191     -2331.5558     -12959.509    
       700   159.30731      315.80332     -2338.489       6.9395332     -2331.5495     -12198.988    
       750   151.80395      300.929       -2338.1739      6.6126814     -2331.5612     -8326.2732    
       800   151.88153      301.08279     -2338.1766      6.6160608     -2331.5605     -11346.124    
       850   160.12744      317.42909     -2338.5977      6.9752582     -2331.6225     -11257.518    
       900   145.06009      287.56029     -2337.9811      6.3189144     -2331.6621     -9567.3406    
       950   161.16596      319.48782     -2338.5255      7.020497      -2331.505      -12251.316    
      1000   148.47128      294.32248     -2337.981       6.4675083     -2331.5135     -13455.333    
      1050   154.34529      305.96683     -2338.252       6.7233839     -2331.5286     -10292.289    
      1100   166.78118      330.61916     -2338.8048      7.2650996     -2331.5397     -9496.5082    
      1150   169.46582      335.94107     -2338.9969      7.3820446     -2331.6149     -10948.066    
      1200   160.27244      317.71654     -2338.5383      6.9815747     -2331.5567     -11696.515    
      1250   159.74894      316.67878     -2338.4624      6.9587706     -2331.5036     -9443.7664    
      1300   146.90057      291.20878     -2337.9051      6.3990871     -2331.506      -10939.927    
      1350   155.24493      307.75025     -2338.3341      6.762573      -2331.5715     -11746.233    
      1400   153.66511      304.61849     -2338.247       6.6937552     -2331.5533     -11338.319    
      1450   166.5003       330.06236     -2338.8117      7.2528644     -2331.5588     -12342.722    
      1500   156.53362      310.30488     -2338.4096      6.8187091     -2331.5909     -11225.52     
      1550   156.58397      310.40469     -2338.3696      6.8209023     -2331.5487     -12308.673    
      1600   182.88044      362.53359     -2339.6328      7.9663945     -2331.6664     -12193.269    
      1650   165.87573      328.82424     -2338.7731      7.2256576     -2331.5475     -13096.522    
      1700   153.40367      304.10021     -2338.2364      6.6823663     -2331.554      -9938.2169    
      1750   156.88374      310.99895     -2338.4216      6.8339608     -2331.5876     -13380.752    
      1800   142.66737      282.81709     -2337.9258      6.2146862     -2331.7111     -11949.916    
      1850   160.26838      317.7085      -2338.5716      6.9813979     -2331.5902     -9426.9067    
      1900   139.59187      276.72036     -2337.6072      6.0807153     -2331.5264     -12736.677    
      1950   148.36665      294.11506     -2338.0192      6.4629503     -2331.5562     -12710.697    
      2000   153.93824      305.15993     -2338.3755      6.7056527     -2331.6698     -10934.657    
      2050   150.39656      298.13907     -2338.3458      6.5513749     -2331.7944     -10646.822    
      2100   165.97263      329.01633     -2338.8929      7.2298788     -2331.663      -11907.486    
      2150   149.07042      295.51019     -2338.1049      6.4936072     -2331.6113     -12401.905    
      2200   165.07529      327.23749     -2338.8254      7.1907902     -2331.6346     -12785.822    
      2250   150.96384      299.26362     -2338.2533      6.576086      -2331.6772     -13149.298    
      2300   161.33718      319.82723     -2338.8211      7.0279554     -2331.7932     -11978.612    
      2350   156.95115      311.13257     -2338.5794      6.836897      -2331.7425     -11383.182    
      2400   158.77963      314.75726     -2338.6119      6.9165467     -2331.6954     -12712.096    
      2450   158.37125      313.94772     -2338.6246      6.8987577     -2331.7258     -11538.575    
      2500   163.33202      323.78171     -2338.9003      7.1148521     -2331.7855     -10946.323    
      2550   153.28478      303.86453     -2338.6603      6.6771874     -2331.9831     -10367.007    
      2600   155.33028      307.91944     -2338.7686      6.766291      -2332.0023     -10780.971    
      2650   159.74665      316.67424     -2338.8989      6.958671      -2331.9403     -11176.005    
      2700   155.7292       308.71023     -2338.6713      6.7836679     -2331.8876     -8484.2913    
      2750   164.38146      325.86207     -2339.0768      7.1605664     -2331.9162     -11088.431    
      2800   151.04454      299.42358     -2338.5719      6.579601      -2331.9923     -12078.128    
      2850   148.30678      293.99637     -2338.5228      6.4603423     -2332.0624     -9108.4654    
      2900   157.93482      313.08256     -2338.8452      6.8797466     -2331.9655     -8898.9712    
      2950   167.55305      332.14928     -2339.3572      7.2987229     -2332.0585     -13302.942    
      3000   168.68437      334.39196     -2339.4246      7.348004      -2332.0766     -9077.6531    
      3050   160.42506      318.01908     -2339.1271      6.9882228     -2332.1389     -10754.878    
      3100   143.57         284.60641     -2338.4733      6.2540052     -2332.2193     -9913.6557    
      3150   151.95227      301.22303     -2338.9177      6.6191425     -2332.2986     -11033.19     
      3200   160.67622      318.51698     -2339.1547      6.9991636     -2332.1556     -10848.767    
      3250   139.73184      276.99782     -2338.3038      6.0868123     -2332.217      -10253.582    
      3300   141.12764      279.7648      -2338.3906      6.1476146     -2332.243      -11207.651    
      3350   153.23693      303.76968     -2338.9689      6.6751032     -2332.2938     -12386.333    
      3400   144.91232      287.26737     -2338.625       6.3124776     -2332.3125     -13273.74     
      3450   161.50939      320.16862     -2339.3031      7.0354572     -2332.2677     -8416.9409    
      3500   147.86141      293.11349     -2338.8009      6.4409418     -2332.36       -12533.744    
      3550   149.44581      296.25434     -2338.8789      6.5099595     -2332.369      -8440.9294    
      3600   140.44828      278.41806     -2338.5175      6.1180209     -2332.3995     -10802.732    
      3650   164.9955       327.07931     -2339.5423      7.1873142     -2332.355      -11282.931    
      3700   162.82334      322.77333     -2339.446       7.0926936     -2332.3533     -10176.271    
      3750   153.88113      305.04671     -2339.0571      6.703165      -2332.3539     -10632.144    
      3800   157.84698      312.90842     -2339.2439      6.8759199     -2332.3679     -12356.531    
      3850   166.17244      329.41242     -2339.6263      7.2385825     -2332.3877     -9729.6575    
      3900   146.72537      290.86148     -2338.9605      6.3914555     -2332.569      -12416.328    
      3950   144.93886      287.31998     -2338.7506      6.3136337     -2332.437      -10675.42     
      4000   146.13767      289.69644     -2338.7667      6.3658546     -2332.4009     -12670.262    
      4050   135.03957      267.6961      -2338.2892      5.8824142     -2332.4068     -10569.078    
      4100   149.64569      296.65057     -2338.8365      6.5186663     -2332.3178     -10764.308    
      4150   149.39893      296.16141     -2338.9908      6.5079174     -2332.4829     -12821.891    
      4200   152.68025      302.66615     -2339.0159      6.650854      -2332.365      -13212.513    
      4250   140.48625      278.49333     -2338.4356      6.1196749     -2332.316      -11608.306    
      4300   152.44482      302.19943     -2338.9788      6.6405983     -2332.3382     -11846.48     
      4350   148.20712      293.79882     -2338.8273      6.4560013     -2332.3713     -11332.302    
      4400   156.44142      310.12212     -2339.1646      6.814693      -2332.3499     -10960.734    
      4450   149.81963      296.99539     -2338.9597      6.5262435     -2332.4335     -11650.434    
      4500   152.25825      301.8296      -2339.0719      6.6324714     -2332.4395     -11104.517    
      4550   151.09408      299.52179     -2339.0507      6.5817591     -2332.469      -13239.757    
      4600   153.43691      304.1661      -2339.3061      6.6838142     -2332.6223     -13612.948    
      4650   143.1837       283.84063     -2338.6549      6.2371779     -2332.4178     -9232.1418    
      4700   146.75017      290.91062     -2338.87        6.3925354     -2332.4774     -14625.618    
      4750   154.78739      306.84324     -2339.2135      6.7426423     -2332.4709     -13757.103    
      4800   141.68962      280.87884     -2338.5703      6.1720947     -2332.3982     -11235.666    
      4850   154.06151      305.40429     -2339.127       6.7110225     -2332.416      -10717.218    
      4900   149.72857      296.81487     -2338.941       6.5222765     -2332.4187     -11072.49     
      4950   157.70335      312.62371     -2339.3385      6.8696636     -2332.4689     -8360.4208    
      5000   156.2159       309.67506     -2339.4169      6.8048692     -2332.6121     -12096.372    
      5050   148.81929      295.01236     -2338.8869      6.4826678     -2332.4042     -11658.796    
      5100   159.26837      315.72612     -2339.4086      6.9378367     -2332.4708     -7410.4784    
      5150   145.04983      287.53995     -2338.6481      6.3184674     -2332.3297     -11156.068    
      5200   145.69249      288.81393     -2338.6908      6.3464622     -2332.3443     -12994.917    
      5250   144.01068      285.47999     -2338.7804      6.2732013     -2332.5072     -11241.44     
      5300   156.21677      309.67678     -2339.1944      6.804907      -2332.3895     -11547.344    
      5350   171.09727      339.17518     -2339.8457      7.4531116     -2332.3926     -7864.4603    
      5400   158.48609      314.17537     -2339.3214      6.9037601     -2332.4176     -8211.7976    
      5450   157.21525      311.65612     -2339.268       6.8484015     -2332.4196     -11331.454    
      5500   152.392        302.09474     -2339.0612      6.6382976     -2332.4229     -11405.09     
      5550   155.07273      307.40889     -2339.2048      6.755072      -2332.4498     -9629.1878    
      5600   145.16473      287.76773     -2338.8442      6.3234728     -2332.5207     -11243.546    
      5650   152.27838      301.8695      -2339.088       6.6333481     -2332.4547     -10019.205    
      5700   159.80625      316.79239     -2339.3938      6.9612671     -2332.4325     -9180.4243    
      5750   156.27901      309.80015     -2339.1668      6.807618      -2332.3592     -9168.0122    
      5800   149.43848      296.23981     -2338.8679      6.5096402     -2332.3583     -9229.9502    
      5850   145.77767      288.98279     -2338.7568      6.3501727     -2332.4066     -10056.688    
      5900   142.40801      282.30293     -2338.798       6.203388      -2332.5946     -10546.286    
      5950   144.4152       286.28189     -2338.7397      6.2908226     -2332.4489     -9572.1748    
      6000   161.63214      320.41194     -2339.3744      7.040804      -2332.3336     -12532.481    
      6050   164.85646      326.8037      -2339.3794      7.1812578     -2332.1981     -11568.345    
      6100   156.29776      309.83731     -2339.0592      6.8084348     -2332.2507     -10237        
      6150   155.63947      308.53236     -2339.0361      6.7797593     -2332.2564     -12861.46     
      6200   144.97045      287.38259     -2338.6219      6.3150096     -2332.3069     -12103.61     
      6250   138.41774      274.39281     -2338.4955      6.0295693     -2332.4659     -12157.471    
      6300   146.03062      289.48423     -2338.6165      6.3611915     -2332.2553     -10007.004    
      6350   150.49254      298.32934     -2338.64        6.5555559     -2332.0844     -12016.911    
      6400   155.88907      309.02716     -2338.8735      6.7906321     -2332.0829     -11853.304    
      6450   152.43698      302.18389     -2338.7406      6.6402567     -2332.1003     -13183.937    
      6500   154.42043      306.1158      -2338.9782      6.7266573     -2332.2515     -14154.856    
      6550   159.31744      315.8234      -2339.1829      6.9399743     -2332.243      -11683.007    
      6600   142.32255      282.13352     -2338.4873      6.1996654     -2332.2876     -11518.979    
      6650   155.32313      307.90526     -2338.8954      6.7659795     -2332.1294     -9680.4703    
      6700   130.95354      259.59614     -2337.826       5.7044238     -2332.1216     -13204.269    
      6750   144.93521      287.31275     -2338.4471      6.3134749     -2332.1336     -11164.565    
      6800   153.39585      304.08471     -2338.9843      6.6820257     -2332.3023     -11545.366    
      6850   150.86462      299.06693     -2338.7789      6.5717638     -2332.2071     -12222.47     
      6900   157.23514      311.69554     -2339.1011      6.8492677     -2332.2518     -10075.301    
      6950   157.37431      311.97142     -2338.9442      6.8553301     -2332.0889     -11782.57     
      7000   163.26832      323.65544     -2339.1832      7.1120772     -2332.0711     -11490.446    
      7050   146.71145      290.83387     -2338.5008      6.3908489     -2332.1099     -9683.1715    
      7100   164.55041      326.19699     -2339.29        7.167926      -2332.1221     -8444.1598    
      7150   157.00278      311.23492     -2339.0112      6.839146      -2332.172      -11384.2      
      7200   156.58913      310.41492     -2339.1423      6.8211272     -2332.3212     -12256.871    
      7250   146.01248      289.44826     -2338.5937      6.3604012     -2332.2333     -9970.5642    
      7300   154.14351      305.56684     -2338.7102      6.7145944     -2331.9956     -14966.357    
      7350   142.37789      282.24323     -2338.2049      6.2020761     -2332.0028     -11302.818    
      7400   155.68405      308.62073     -2338.7926      6.7817012     -2332.0109     -10871.729    
      7450   150.22829      297.8055      -2338.7354      6.544045      -2332.1913     -12081.025    
      7500   145.50002      288.43239     -2338.356       6.3380782     -2332.0179     -9762.0224    
      7550   139.03404      275.61454     -2337.9712      6.0564158     -2331.9148     -13396.425    
      7600   136.59967      270.78875     -2337.8674      5.9503728     -2331.917      -11850.864    
      7650   143.4161       284.30132     -2338.2822      6.2473012     -2332.0349     -13672.547    
      7700   151.36458      300.05803     -2338.7605      6.5935425     -2332.1669     -9076.6162    
      7750   154.21721      305.71294     -2339.0016      6.7178048     -2332.2838     -13432.137    
      7800   155.65906      308.57119     -2338.7434      6.7806126     -2331.9628     -8295.854     
      7850   141.01969      279.55081     -2338.1092      6.1429122     -2331.9663     -10474.296    
      7900   156.80342      310.83972     -2338.8076      6.8304619     -2331.9771     -7279.8434    
      7950   164.94207      326.97339     -2339.2411      7.1849868     -2332.0561     -10840.41     
      8000   149.69686      296.75202     -2338.5441      6.5208955     -2332.0232     -10387.489    
      8050   157.62564      312.46965     -2338.7454      6.8662784     -2331.8791     -11825.281    
      8100   155.52823      308.31185     -2338.6543      6.7749138     -2331.8794     -7207.2459    
      8150   154.67722      306.62485     -2338.6921      6.7378434     -2331.9542     -10000.868    
      8200   156.30441      309.85052     -2338.8551      6.8087249     -2332.0464     -10959.868    
      8250   156.40529      310.05048     -2338.8058      6.8131189     -2331.9927     -10286.623    
      8300   164.09858      325.3013      -2339.1666      7.1482438     -2332.0184     -10239.053    
      8350   165.04517      327.17778     -2339.1758      7.1894781     -2331.9863     -10867.554    
      8400   156.23371      309.71036     -2338.9776      6.805645      -2332.172      -10247.663    
      8450   152.53768      302.38351     -2338.6012      6.6446432     -2331.9566     -11743.668    
      8500   153.45141      304.19485     -2338.6123      6.6844461     -2331.9278     -10890.38     
      8550   144.99862      287.43844     -2338.1459      6.3162367     -2331.8297     -13554.121    
      8600   147.76668      292.92571     -2338.3003      6.4368154     -2331.8635     -10511.072    
      8650   153.06398      303.42684     -2338.62        6.6675695     -2331.9525     -12921.912    
      8700   163.11445      323.35041     -2339.1688      7.1053747     -2332.0634     -11535.82     
      8750   164.69474      326.48309     -2339.168       7.1742128     -2331.9938     -12329.154    
      8800   158.93477      315.0648      -2338.887       6.9233047     -2331.9637     -12140.822    
      8850   149.17818      295.7238      -2338.4749      6.4983012     -2331.9766     -9192.7361    
      8900   159.47929      316.14425     -2338.9417      6.9470247     -2331.9947     -11138.85     
      8950   151.09037      299.51444     -2338.8772      6.5815975     -2332.2956     -8884.6575    
      9000   153.18561      303.66795     -2338.8919      6.6728678     -2332.219      -10498.198    
      9050   153.74292      304.77272     -2338.6029      6.6971442     -2331.9058     -11387.583    
      9100   146.52204      290.4584      -2338.1899      6.3825982     -2331.8073     -9471.1293    
      9150   129.48005      256.67516     -2337.4628      5.6402377     -2331.8226     -10608.371    
      9200   156.66713      310.56954     -2338.6755      6.8245249     -2331.851      -9274.813     
      9250   152.71661      302.73822     -2338.5956      6.6524377     -2331.9432     -9014.7678    
      9300   161.64365      320.43477     -2338.9895      7.0413056     -2331.9482     -11050.308    
      9350   147.90134      293.19265     -2338.381       6.4426811     -2331.9383     -12070.86     
      9400   137.65364      272.8781      -2338.0231      5.9962848     -2332.0268     -11403.573    
      9450   153.84277      304.97067     -2338.7522      6.701494      -2332.0507     -7759.182     
      9500   172.81008      342.57057     -2339.4864      7.5277227     -2331.9587     -10398.793    
      9550   168.24434      333.51966     -2339.3419      7.328836      -2332.0131     -10425.913    
      9600   161.25907      319.67239     -2339.0051      7.024553      -2331.9806     -9246.3081    
      9650   153.6481       304.58477     -2338.6967      6.6930142     -2332.0037     -10955.196    
      9700   156.71949      310.67334     -2338.8892      6.8268057     -2332.0623     -10558.845    
      9750   147.17442      291.75165     -2338.4959      6.4110163     -2332.0849     -8658.6258    
      9800   161.5992       320.34666     -2339.2072      7.0393694     -2332.1678     -9669.7915    
      9850   148.45222      294.28469     -2338.7399      6.4666778     -2332.2732     -11267.358    
      9900   143.5032       284.474       -2338.5937      6.2510955     -2332.3426     -11567.452    
      9950   153.14396      303.58539     -2338.8176      6.6710535     -2332.1465     -9154.8109    
     10000   141.71805      280.9352      -2338.3452      6.1733332     -2332.1718     -8732.4646    
     10050   153.69598      304.67968     -2338.8934      6.6950998     -2332.1983     -11942.811    
     10100   172.07506      341.1135      -2339.8004      7.4957047     -2332.3047     -12086.987    
     10150   162.20723      321.55198     -2339.552       7.0658554     -2332.4861     -10282.892    
     10200   151.7752       300.87201     -2338.8487      6.6114292     -2332.2373     -13265.149    
     10250   148.75115      294.87727     -2338.4988      6.4796994     -2332.0191     -9233.9669    
     10300   150.37975      298.10575     -2338.6089      6.5506426     -2332.0583     -9795.8822    
     10350   147.11386      291.6316      -2338.4772      6.4083783     -2332.0688     -12256.981    
     10400   136.45697      270.50588     -2338.2284      5.9441571     -2332.2843     -8280.5576    
     10450   147.00262      291.41107     -2338.9239      6.4035323     -2332.5204     -8983.7526    
     10500   163.19529      323.51066     -2339.5494      7.108896      -2332.4405     -13297.343    
     10550   151.48999      300.30662     -2338.8291      6.5990051     -2332.2301     -8818.3206    
     10600   136.49736      270.58594     -2338.2024      5.9459162     -2332.2565     -6907.1472    
     10650   153.07657      303.45179     -2338.9366      6.6681178     -2332.2684     -13682.318    
     10700   157.15727      311.54117     -2339.454       6.8458757     -2332.6082     -8244.5623    
     10750   150.26605      297.88034     -2338.9357      6.5456895     -2332.39       -12405.234    
     10800   144.48063      286.41161     -2338.6623      6.293673      -2332.3687     -11036.302    
     10850   156.0496       309.34538     -2338.9228      6.7976249     -2332.1252     -12169.991    
     10900   149.62089      296.6014      -2338.6629      6.5175859     -2332.1454     -11370.753    
     10950   157.21536      311.65634     -2339.0116      6.8484064     -2332.1632     -10469.241    
     11000   151.50634      300.33904     -2339.0942      6.5997176     -2332.4945     -11882.831    
     11050   139.83503      277.20238     -2338.2936      6.0913074     -2332.2023     -15716.394    
     11100   128.12069      253.98043     -2337.8059      5.5810231     -2332.2249     -8643.5021    
     11150   143.25242      283.97686     -2338.3917      6.2401714     -2332.1515     -13064.865    
     11200   138.5543       274.66352     -2338.2048      6.0355179     -2332.1693     -10086.947    
     11250   145.04386      287.52813     -2338.538       6.3182076     -2332.2197     -11573.241    
     11300   147.68126      292.75638     -2338.9418      6.4330944     -2332.5087     -9967.597     
     11350   160.10781      317.39019     -2339.3157      6.9744034     -2332.3413     -8983.6031    
     11400   184.75397      366.24757     -2340.3457      8.0480063     -2332.2977     -8248.4921    
     11450   142.0853       281.6632      -2338.4479      6.1893305     -2332.2586     -10929.016    
     11500   163.89607      324.89987     -2339.4144      7.1394226     -2332.275      -11517.501    
     11550   170.92068      338.82512     -2339.8053      7.4454193     -2332.3599     -8965.025     
     11600   153.31179      303.91809     -2339.2615      6.6783643     -2332.5831     -12830.909    
     11650   132.48569      262.63339     -2338.1491      5.7711651     -2332.3779     -10395.194    
     11700   151.14211      299.61701     -2339.1725      6.5838514     -2332.5886     -9796.3361    
     11750   150.97155      299.27889     -2338.8159      6.5764215     -2332.2395     -12871.277    
     11800   151.15211      299.63683     -2338.9002      6.5842869     -2332.3159     -10731.687    
     11850   153.46843      304.2286      -2338.8243      6.6851876     -2332.1391     -11312.153    
     11900   143.26804      284.00782     -2338.4029      6.2408517     -2332.1621     -10148.538    
     11950   152.0782       301.47267     -2339.0628      6.6246283     -2332.4381     -8701.9638    
     12000   149.18894      295.74514     -2338.8191      6.4987702     -2332.3204     -12822.557    
     12050   150.75289      298.84543     -2338.7834      6.5668965     -2332.2165     -11525.024    
     12100   154.87199      307.01095     -2338.8572      6.7463276     -2332.1109     -13380.73     
     12150   153.08221      303.46296     -2338.9524      6.6683633     -2332.284      -9879.3353    
     12200   145.30591      288.0476      -2338.6181      6.3296226     -2332.2885     -8175.4231    
     12250   170.18941      337.37548     -2339.5959      7.4135645     -2332.1824     -13423.541    
     12300   159.31919      315.82687     -2339.2715      6.9400506     -2332.3315     -12756.558    
     12350   152.02037      301.35802     -2338.8287      6.6221088     -2332.2066     -10978.341    
     12400   161.14834      319.45288     -2339.1208      7.0197294     -2332.1011     -12602.812    
     12450   160.21426      317.6012      -2339.5348      6.9790401     -2332.5558     -13809.41     
     12500   160.75631      318.67574     -2339.2056      7.0026523     -2332.2029     -10251.43     
     12550   144.19144      285.83833     -2338.4905      6.2810757     -2332.2095     -7783.066     
     12600   161.94462      321.03139     -2339.2762      7.0544158     -2332.2217     -11701.053    
     12650   155.15863      307.57916     -2339.2238      6.7588136     -2332.465      -12624.83     
     12700   147.83866      293.0684      -2339.0256      6.4399508     -2332.5856     -10986.832    
     12750   154.54014      306.3531      -2339.3424      6.7318719     -2332.6106     -12512.074    
     12800   173.32697      343.59522     -2339.8425      7.5502387     -2332.2923     -9701.2683    
     12850   160.36799      317.90595     -2339.2821      6.9857368     -2332.2964     -8141.7314    
     12900   168.75312      334.52825     -2339.6526      7.3509989     -2332.3016     -10157.473    
     12950   156.89942      311.03004     -2339.4232      6.8346439     -2332.5885     -11223.305    
     13000   146.69333      290.79795     -2339.0812      6.3900596     -2332.6912     -12318.764    
     13050   138.27303      274.10596     -2338.7334      6.0232659     -2332.7101     -11352.155    
     13100   149.55286      296.46655     -2338.8743      6.5146226     -2332.3597     -9273.935     
     13150   160.36806      317.90609     -2339.3541      6.9857398     -2332.3683     -6495.7152    
     13200   144.88737      287.2179      -2338.694       6.3113907     -2332.3826     -7769.3262    
     13250   164.38819      325.87541     -2339.674       7.1608595     -2332.5132     -10292.736    
     13300   146.38646      290.18963     -2338.9313      6.376692      -2332.5546     -12026.988    
     13350   150.97295      299.28167     -2339.014       6.5764827     -2332.4375     -10455.717    
     13400   132.25697      262.18        -2338.1999      5.7612022     -2332.4387     -10549.762    
     13450   153.19144      303.6795      -2339.132       6.6731215     -2332.4589     -9355.0472    
     13500   147.68514      292.76407     -2339.136       6.4332635     -2332.7028     -10555.124    
     13550   158.08436      313.379       -2339.2768      6.8862605     -2332.3905     -7782.8179    
     13600   158.17767      313.56397     -2339.3257      6.8903251     -2332.4354     -9874.4188    
     13650   142.16856      281.82826     -2338.6307      6.1929575     -2332.4377     -9987.8919    
     13700   154.92022      307.10655     -2339.244       6.7484284     -2332.4956     -9003.0429    
     13750   146.16195      289.74458     -2339.1956      6.3669124     -2332.8287     -8024.5578    
     13800   151.93554      301.18987     -2339.3068      6.6184139     -2332.6884     -10699.199    
     13850   152.97987      303.26009     -2339.3752      6.6639053     -2332.7113     -9444.331     
     13900   164.22743      325.55672     -2339.5899      7.1538565     -2332.436      -10149.127    
     13950   152.45776      302.22509     -2339.084       6.6411619     -2332.4428     -10428.157    
     14000   158.6646       314.52923     -2339.3657      6.911536      -2332.4542     -9941.2205    
     14050   153.55429      304.39881     -2339.4626      6.6889277     -2332.7736     -13579.2      
     14100   146.32874      290.07521     -2339.1221      6.3741779     -2332.7479     -10895.611    
     14150   151.65166      300.62712     -2339.3646      6.6060478     -2332.7586     -10288.197    
     14200   162.82271      322.77208     -2339.5579      7.0926662     -2332.4653     -10017.009    
     14250   155.91416      309.07689     -2339.265       6.7917249     -2332.4733     -9514.9767    
     14300   159.87836      316.93534     -2339.444       6.9644084     -2332.4796     -12331.767    
     14350   149.7514       296.86012     -2339.3467      6.523271      -2332.8235     -10551.677    
     14400   137.35229      272.28071     -2338.7543      5.9831574     -2332.7712     -11750.751    
     14450   152.91077      303.12311     -2339.1732      6.6608953     -2332.5123     -10188.212    
     14500   142.4654       282.41671     -2338.628       6.2058882     -2332.4222     -9745.9228    
     14550   147.43278      292.2638      -2338.8502      6.4222705     -2332.4279     -10054.753    
     14600   157.27246      311.76952     -2339.3311      6.8508934     -2332.4802     -10154.64     
     14650   161.5225       320.19461     -2339.6001      7.0360282     -2332.564      -10598.199    
     14700   155.86739      308.98418     -2339.3952      6.7896878     -2332.6055     -9918.245     
     14750   165.80192      328.67793     -2339.5293      7.2224426     -2332.3069     -12161.962    
     14800   144.93721      287.31671     -2338.6243      6.3135619     -2332.3108     -7901.0351    
     14850   167.87127      332.7801      -2339.6329      7.3125846     -2332.3203     -9854.5284    
     14900   156.86771      310.96717     -2339.3626      6.8332624     -2332.5293     -12177.985    
     14950   155.00801      307.28059     -2339.0427      6.7522526     -2332.2904     -11539.474    
     15000   146.99346      291.39292     -2338.5916      6.4031336     -2332.1885     -10062.604    
     15050   144.51255      286.47488     -2338.2521      6.2950634     -2331.957      -14713.908    
     15100   157.75946      312.73494     -2338.8423      6.8721078     -2331.9702     -13166.324    
     15150   158.30978      313.82586     -2338.9019      6.89608       -2332.0058     -11511.445    
     15200   164.00576      325.1173      -2339.8507      7.1442007     -2332.7065     -11821.205    
     15250   164.93905      326.96741     -2339.3262      7.1848554     -2332.1414     -10867.157    
     15300   141.02117      279.55373     -2338.305       6.1429765     -2332.1621     -8560.7184    
     15350   147.45768      292.31316     -2338.5953      6.423355      -2332.1719     -10152.027    
     15400   153.33993      303.97386     -2339.0371      6.67959       -2332.3575     -11325.157    
     15450   172.86265      342.67478     -2339.808       7.5300127     -2332.278      -10573.565    
     15500   161.16958      319.49498     -2339.0989      7.0206545     -2332.0782     -11132.574    
     15550   160.21701      317.60666     -2339.0457      6.9791602     -2332.0665     -10408.309    
     15600   154.22107      305.72059     -2338.9458      6.7179729     -2332.2279     -13450.743    
     15650   156.67001      310.57525     -2339.4338      6.8246504     -2332.6092     -10663.157    
     15700   171.12912      339.2383      -2339.6243      7.4544987     -2332.1698     -11925.367    
     15750   157.34172      311.90683     -2339.0396      6.8539107     -2332.1857     -7515.8067    
     15800   161.92737      320.99719     -2339.2565      7.0536644     -2332.2028     -10412.303    
     15850   156.20087      309.64526     -2339.465       6.8042145     -2332.6608     -11653.701    
     15900   164.18675      325.47608     -2339.4811      7.1520845     -2332.329      -12484.567    
     15950   163.86803      324.84426     -2339.2293      7.1382008     -2332.0911     -12133.893    
     16000   151.44151      300.21053     -2338.7463      6.5968937     -2332.1494     -8977.7493    
     16050   165.21666      327.51773     -2339.3626      7.1969481     -2332.1657     -7498.9666    
     16100   161.08066      319.31872     -2339.074       7.0167812     -2332.0572     -13238.483    
     16150   157.31977      311.86332     -2339.2687      6.8529546     -2332.4157     -10406.677    
     16200   149.49305      296.34799     -2339.1697      6.5120173     -2332.6577     -11640.884    
     16250   159.82232      316.82425     -2339.0882      6.9619673     -2332.1263     -11161.607    
     16300   149.32226      296.00942     -2338.6507      6.5045775     -2332.1462     -9904.3065    
     16350   178.8621       354.5678      -2339.9618      7.7913525     -2332.1704     -9885.3009    
     16400   139.06348      275.67291     -2338.7209      6.0576984     -2332.6632     -12100.821    
     16450   154.05716      305.39567     -2339.2958      6.7108331     -2332.5849     -8724.3249    
     16500   168.4623       333.95174     -2339.9905      7.3383306     -2332.6522     -11900.295    
     16550   146.08579      289.59359     -2338.5023      6.3635947     -2332.1387     -11245.194    
     16600   149.264        295.89394     -2338.6604      6.5020399     -2332.1583     -7059.0881    
     16650   164.84914      326.78919     -2339.3577      7.180939      -2332.1768     -11365.158    
     16700   149.24064      295.84762     -2339.2664      6.5010221     -2332.7654     -10546.098    
     16750   159.42294      316.03254     -2339.192       6.94457       -2332.2474     -13042.82     
     16800   173.375        343.69045     -2339.7986      7.5523311     -2332.2462     -8932.7763    
     16850   155.45419      308.16507     -2339.0327      6.7716885     -2332.261      -10138.44     
     16900   149.36708      296.09827     -2339.0269      6.50653       -2332.5204     -10612.427    
     16950   156.89216      311.01564     -2339.742       6.8343276     -2332.9077     -9495.2594    
     17000   161.54309      320.23541     -2339.1842      7.0369249     -2332.1473     -10317.24     
     17050   150.74654      298.83284     -2338.7451      6.56662       -2332.1785     -9595.779     
     17100   150.79376      298.92644     -2338.7456      6.5686768     -2332.177      -13403.903    
     17150   156.63047      310.49688     -2338.9704      6.8229281     -2332.1474     -14825.644    
     17200   145.89135      289.20815     -2338.5405      6.3551249     -2332.1854     -9987.6952    
     17250   152.14251      301.60015     -2338.8017      6.6274294     -2332.1743     -12213.731    
     17300   146.92074      291.24876     -2338.5757      6.3999657     -2332.1757     -13332.185    
     17350   148.04812      293.48363     -2338.647       6.4490752     -2332.1979     -10637.771    
     17400   149.23583      295.83809     -2338.8109      6.5008126     -2332.3101     -14875.238    
     17450   173.80822      344.54924     -2339.6632      7.5712024     -2332.092      -13312.638    
     17500   155.63879      308.53101     -2339.4288      6.7797297     -2332.6491     -8429.742     
     17550   173.35341      343.64765     -2340.0195      7.5513906     -2332.4681     -10247.354    
     17600   149.42361      296.21034     -2338.7198      6.5089926     -2332.2108     -10684.997    
     17650   162.20299      321.54357     -2339.2975      7.0656707     -2332.2319     -9671.2316    
     17700   177.17956      351.23241     -2340.0018      7.71806       -2332.2838     -9686.1793    
     17750   165.14872      327.38306     -2339.5984      7.1939889     -2332.4045     -11876.196    
     17800   160.48449      318.1369      -2339.2701      6.9908118     -2332.2793     -10213.142    
     17850   145.90905      289.24324     -2338.5322      6.355896      -2332.1763     -8164.9782    
     17900   153.87308      305.03075     -2338.8409      6.7028141     -2332.138      -14257.524    
     17950   147.3207       292.04161     -2338.5879      6.417388      -2332.1706     -12863.024    
     18000   150.83801      299.01417     -2338.749       6.5706045     -2332.1783     -11200.689    
     18050   161.32121      319.79557     -2339.4151      7.0272597     -2332.3878     -11894.372    
     18100   157.81219      312.83946     -2339.2229      6.8744045     -2332.3485     -9498.8991    
     18150   162.8366       322.79961     -2339.3349      7.0932711     -2332.2416     -11688.244    
     18200   150.01361      297.37991     -2338.7779      6.534693      -2332.2432     -13831.178    
     18250   163.22605      323.57164     -2339.3711      7.1102359     -2332.2609     -13107.687    
     18300   153.55791      304.40597     -2339.082       6.6890852     -2332.3929     -7383.7071    
     18350   165.91442      328.90093     -2339.2734      7.227343      -2332.046      -10485.188    
     18400   173.95501      344.84023     -2339.7266      7.5775967     -2332.149      -6236.276     
     18450   162.74748      322.62295     -2339.226       7.0893892     -2332.1367     -8674.0418    
     18500   166.45337      329.96932     -2339.5007      7.2508199     -2332.2498     -11293.801    
     18550   155.78144      308.8138      -2339.0033      6.7859439     -2332.2174     -11208.518    
     18600   169.53448      336.07717     -2339.5821      7.3850352     -2332.1971     -11681.072    
     18650   171.61647      340.20442     -2339.6356      7.4757284     -2332.1599     -10077.151    
     18700   175.74447      348.38757     -2340.0573      7.6555467     -2332.4017     -13674.24     
     18750   165.98141      329.03374     -2339.6535      7.2302614     -2332.4232     -11720.292    
     18800   143.02322      283.52249     -2338.6449      6.230187      -2332.4147     -10543.47     
     18850   149.34108      296.04672     -2338.9331      6.5053971     -2332.4277     -10641.885    
     18900   157.73791      312.69221     -2339.3366      6.8711689     -2332.4654     -12866.681    
     18950   138.67185      274.89656     -2338.9203      6.0406387     -2332.8796     -12475.702    
     19000   161.35665      319.86584     -2339.1317      7.0288038     -2332.1029     -13111.699    
     19050   165.35936      327.80061     -2339.3052      7.2031643     -2332.102      -13505.919    
     19100   142.85694      283.19287     -2338.3361      6.2229437     -2332.1131     -13116.249    
     19150   151.0388       299.4122      -2338.8164      6.579351      -2332.237      -12484.861    
     19200   164.19708      325.49656     -2339.4997      7.1525346     -2332.3471     -10508.285    
     19250   158.69472      314.58894     -2339.3267      6.912848      -2332.4139     -11506.458    
     19300   164.77337      326.63897     -2339.6111      7.1776381     -2332.4334     -10029.591    
     19350   151.31486      299.95947     -2339.0056      6.5913767     -2332.4142     -11052.458    
     19400   149.82424      297.00451     -2338.9497      6.5264439     -2332.4233     -9737.3316    
     19450   162.45772      322.04854     -2339.7414      7.076767      -2332.6646     -10737.232    
     19500   165.5331       328.14502     -2339.9765      7.2107325     -2332.7658     -15192.573    
     19550   160.05734      317.29014     -2339.3204      6.9722048     -2332.3482     -11367.408    
     19600   153.40738      304.10757     -2338.9642      6.6825282     -2332.2817     -14066.891    
     19650   168.42627      333.8803      -2339.6916      7.3367608     -2332.3549     -10206.217    
     19700   168.16162      333.35569     -2339.7318      7.3252328     -2332.4066     -10830.942    
     19750   148.40815      294.19734     -2339.5659      6.4647583     -2333.1011     -11654.425    
     19800   151.97753      301.27309     -2339.3699      6.6202427     -2332.7497     -10777.708    
     19850   160.4338       318.03641     -2339.1968      6.9886034     -2332.2082     -11140.267    
     19900   167.87021      332.778       -2339.5351      7.3125385     -2332.2226     -11053.81     
     19950   170.86586      338.71644     -2339.7001      7.4430311     -2332.2571     -10433.426    
     20000   164.7448       326.58235     -2340.1629      7.1763938     -2332.9865     -10915.248    
     20050   189.46777      375.59199     -2340.7559      8.2533427     -2332.5025     -10262.289    
     20100   161.13866      319.4337      -2339.5301      7.0193079     -2332.5108     -9024.5975    
     20150   157.19667      311.61928     -2339.3707      6.847592      -2332.5231     -8831.6974    
     20200   160.42247      318.01396     -2339.4356      6.9881102     -2332.4475     -9749.4734    
     20250   165.61579      328.30896     -2340.143       7.2143348     -2332.9286     -8950.8571    
     20300   166.41977      329.90273     -2339.6098      7.2493566     -2332.3604     -12213.21     
     20350   149.9908       297.33471     -2338.8584      6.5336997     -2332.3247     -11272.566    
     20400   159.82973      316.83894     -2339.3174      6.9622899     -2332.3551     -14695.773    
     20450   154.6729       306.61629     -2339.6508      6.7376552     -2332.9131     -12167.025    
     20500   158.58929      314.37995     -2339.6461      6.9082556     -2332.7379     -11191.939    
     20550   169.22807      335.46976     -2340.0796      7.3716879     -2332.7079     -10904.438    
     20600   155.36763      307.99348     -2339.4863      6.767918      -2332.7184     -8656.0907    
     20650   160.51669      318.20074     -2339.7259      6.9922145     -2332.7337     -8779.2046    
     20700   161.47509      320.10062     -2340.0574      7.0339629     -2333.0235     -10008.972    
     20750   166.04918      329.16809     -2339.8351      7.2332135     -2332.6018     -10246.189    
     20800   153.61702      304.52314     -2339.284       6.6916599     -2332.5923     -9022.9999    
     20850   150.31566      297.97869     -2339.112       6.5478506     -2332.5641     -10118.804    
     20900   159.19934      315.58928     -2339.6246      6.9348296     -2332.6898     -12732.548    
     20950   160.42014      318.00933     -2339.8761      6.9880084     -2332.8881     -12448.971    
     21000   155.07246      307.40835     -2339.4402      6.7550602     -2332.6852     -11755.961    
     21050   141.33022      280.16637     -2338.7737      6.1564387     -2332.6172     -14163.417    
     21100   159.13147      315.45475     -2339.6714      6.9318734     -2332.7395     -10960.877    
     21150   156.38616      310.01257     -2339.7893      6.8122858     -2332.977      -12582.724    
     21200   159.96874      317.11451     -2340.0164      6.9683455     -2333.0481     -7876.3634    
     21250   157.67009      312.55776     -2339.6061      6.8682144     -2332.7379     -5481.9804    
     21300   148.31554      294.01375     -2339.2182      6.4607243     -2332.7575     -13101.151    
     21350   164.70548      326.50439     -2339.9604      7.1746808     -2332.7857     -10421.99     
     21400   160.07461      317.32437     -2339.9825      6.9729569     -2333.0096     -15049.136    
     21450   151.6551       300.63393     -2339.7011      6.6061974     -2333.0949     -12691.071    
     21500   145.00357      287.44825     -2339.1131      6.3164523     -2332.7967     -9781.7589    
     21550   146.47194      290.35908     -2339.0372      6.3804157     -2332.6568     -15860.289    
     21600   163.89292      324.89361     -2340.0105      7.1392851     -2332.8712     -13459.55     
     21650   164.34097      325.7818      -2339.8476      7.1588026     -2332.6888     -11459.744    
     21700   168.66103      334.3457      -2340.7836      7.3469875     -2333.4366     -13546.273    
     21750   157.88487      312.98354     -2339.735       6.8775705     -2332.8574     -8486.8251    
     21800   151.17448      299.68118     -2339.4601      6.5852616     -2332.8749     -6844.8337    
     21850   161.82787      320.79995     -2339.9429      7.0493301     -2332.8936     -8844.1662    
     21900   151.80695      300.93495     -2340.1017      6.6128122     -2333.4889     -11561.403    
     21950   155.97511      309.19772     -2340.1983      6.7943802     -2333.4039     -10349.906    
     22000   171.73108      340.43161     -2340.6221      7.4807207     -2333.1414     -9253.5445    
     22050   166.98789      331.02894     -2340.2403      7.2741044     -2332.9662     -11528.847    
     22100   146.98915      291.38438     -2339.3877      6.4029459     -2332.9847     -7670.3357    
     22150   163.78429      324.67828     -2340.1562      7.1345534     -2333.0216     -11336.643    
     22200   148.09382      293.57421     -2340.1456      6.4510656     -2333.6945     -11455.644    
     22250   162.98964      323.103       -2340.1099      7.0999378     -2333.01       -10828.155    
     22300   156.45539      310.1498      -2339.8484      6.8153013     -2333.0331     -9343.0117    
     22350   168.7776       334.57677     -2340.411       7.3520651     -2333.0589     -8739.2539    
     22400   163.61468      324.34205     -2340.7972      7.127165      -2333.67       -7046.6531    
     22450   167.89342      332.82402     -2340.4327      7.3135498     -2333.1191     -8371.0132    
     22500   154.96148      307.18834     -2339.86        6.7502257     -2333.1097     -8474.0933    
     22550   151.69538      300.71378     -2339.732       6.6079521     -2333.124      -9881.7101    
     22600   156.08415      309.41387     -2340.3399      6.79913       -2333.5408     -9608.6349    
     22650   155.96972      309.18704     -2340.625       6.7941455     -2333.8309     -11673.374    
     22700   151.60216      300.52899     -2340.4299      6.6038915     -2333.826      -11832.525    
     22750   163.41093      323.93814     -2340.5608      7.1182895     -2333.4425     -12992.433    
     22800   153.48529      304.26201     -2340.1948      6.6859218     -2333.5088     -9748.9048    
     22850   163.44431      324.00431     -2340.6734      7.1197436     -2333.5537     -14299.24     
     22900   133.23797      264.12468     -2339.7293      5.803935      -2333.9254     -9527.6112    
     22950   146.99221      291.39045     -2340.4522      6.4030792     -2334.0491     -12409.889    
     23000   150.00571      297.36427     -2340.3921      6.5343492     -2333.8578     -13370.17     
     23050   159.77527      316.73098     -2340.541       6.9599178     -2333.5811     -10200.403    
     23100   151.54788      300.42138     -2340.2014      6.6015268     -2333.5999     -12100.297    
     23150   153.64261      304.57389     -2340.5365      6.692775      -2333.8437     -12347.098    
     23200   155.29994      307.85929     -2340.7724      6.7649692     -2334.0074     -13230.708    
     23250   131.63295      260.94297     -2339.7811      5.7340195     -2334.0471     -12149.641    
     23300   142.91101      283.30006     -2340.258       6.2252992     -2334.0327     -11721.522    
     23350   141.83455      281.16615     -2340.0826      6.178408      -2333.9042     -12081.683    
     23400   151.44438      300.21622     -2340.3695      6.5970186     -2333.7725     -12931.03     
     23450   165.79761      328.66937     -2340.6901      7.2222546     -2333.4679     -14128.186    
     23500   150.00464      297.36213     -2340.0848      6.5343023     -2333.5505     -9887.9772    
     23550   157.11429      311.45597     -2340.3792      6.8440034     -2333.5352     -11796.15     
     23600   142.68261      282.84729     -2339.7027      6.2153499     -2333.4873     -14185.614    
     23650   150.58979      298.52211     -2339.8538      6.559792      -2333.294      -14534.297    
     23700   130.97013      259.62902     -2338.9566      5.7051463     -2333.2514     -12448.257    
     23750   138.58478      274.72394     -2339.5161      6.0368456     -2333.4792     -12339.99     
     23800   145.15337      287.7452      -2339.7421      6.3229777     -2333.4191     -13754.947    
     23850   143.96794      285.39527     -2339.725       6.2713398     -2333.4536     -12290.232    
     23900   145.94034      289.30526     -2339.6369      6.3572588     -2333.2796     -12964.403    
     23950   145.62337      288.67691     -2339.6416      6.3434513     -2333.2981     -11183.876    
     24000   137.09814      271.7769      -2339.519       5.9720866     -2333.5469     -11281.505    
     24050   164.36247      325.82442     -2340.3758      7.1597391     -2333.2161     -8871.9219    
     24100   156.52039      310.27866     -2340.869       6.818133      -2334.0508     -10568.477    
     24150   158.5501       314.30225     -2340.1707      6.9065483     -2333.2641     -12170.631    
     24200   140.63857      278.79527     -2339.393       6.12631       -2333.2667     -8623.7756    
     24250   168.70119      334.4253      -2340.6237      7.3487367     -2333.275      -11614.302    
     24300   150.18588      297.72142     -2340.4767      6.5421974     -2333.9345     -8197.3561    
     24350   158.16239      313.53367     -2340.1536      6.8896594     -2333.2639     -8822.267     
     24400   149.7628       296.88274     -2339.9533      6.5237679     -2333.4295     -9190.2516    
     24450   150.52177      298.38728     -2340.0466      6.5568291     -2333.4898     -9715.1024    
     24500   169.73903      336.48267     -2340.8276      7.3939459     -2333.4336     -11707.906    
     24550   178.612        354.07202     -2340.8822      7.7804582     -2333.1018     -8311.6551    
     24600   153.87288      305.03036     -2339.8122      6.7028058     -2333.1094     -9565.803     
     24650   169.21937      335.45252     -2340.4898      7.3713091     -2333.1185     -8645.2305    
     24700   150.56054      298.46413     -2340.3644      6.5585178     -2333.8059     -9325.4384    
     24750   151.37091      300.07058     -2340.0931      6.5938183     -2333.4993     -8542.6047    
     24800   145.69945      288.82774     -2339.4204      6.3467657     -2333.0736     -11509.728    
     24850   143.85373      285.16887     -2339.3633      6.2663647     -2333.0969     -15022.068    
     24900   144.43328      286.31774     -2339.5911      6.2916102     -2333.2995     -8875.7134    
     24950   169.8515       336.70562     -2341.0058      7.3988449     -2333.607      -13028.761    
     25000   171.36234      339.70063     -2340.3833      7.464658      -2332.9187     -12676.318    
     25050   166.97811      331.00954     -2340.4345      7.273678      -2333.1608     -9463.939     
     25100   147.41143      292.22147     -2339.5999      6.4213403     -2333.1785     -8494.854     
     25150   165.70397      328.48375     -2340.2862      7.2181756     -2333.068      -11364.416    
     25200   156.76298      310.75956     -2340.3952      6.8287003     -2333.5665     -14772.679    
     25250   134.46256      266.55226     -2339.1207      5.8572791     -2333.2634     -11926.132    
     25300   146.94201      291.29092     -2339.9152      6.4008922     -2333.5143     -12686.901    
     25350   169.86872      336.73976     -2340.7616      7.3995951     -2333.362      -11506.146    
     25400   153.23644      303.7687      -2339.8952      6.6750817     -2333.2201     -11907.747    
     25450   146.17187      289.76424     -2339.6059      6.3673445     -2333.2386     -11499.82     
     25500   152.14847      301.61196     -2339.8789      6.6276891     -2333.2512     -10349.093    
     25550   153.82795      304.94129     -2340.5021      6.7008483     -2333.8013     -13250.715    
     25600   148.95481      295.28101     -2340.4446      6.4885712     -2333.956      -10254.486    
     25650   158.33357      313.87301     -2339.9847      6.8971161     -2333.0876     -12762.572    
     25700   146.37471      290.16633     -2339.4541      6.3761801     -2333.0779     -13127.976    
     25750   140.00316      277.53567     -2339.9367      6.0986313     -2333.8381     -11046.753    
     25800   165.97694      329.02487     -2340.7776      7.2300663     -2333.5475     -12232.233    
     25850   147.20141      291.80514     -2339.6269      6.4121917     -2333.2147     -10502.925    
     25900   157.17616      311.57861     -2340.0796      6.8466984     -2333.2329     -9817.1518    
     25950   153.83669      304.95861     -2339.9235      6.701229      -2333.2223     -12920.265    
     26000   163.37095      323.85889     -2340.6771      7.1165479     -2333.5606     -8687.1695    
     26050   160.98298      319.12509     -2340.0656      7.0125264     -2333.0531     -11867.324    
     26100   153.34472      303.98337     -2339.8059      6.6797988     -2333.1261     -15216.011    
     26150   133.36338      264.3733      -2338.7822      5.8093982     -2332.9728     -11687.203    
     26200   144.42719      286.30567     -2339.2768      6.2913452     -2332.9855     -13803.274    
     26250   148.13851      293.66281     -2339.6794      6.4530125     -2333.2264     -9053.7429    
     26300   148.36003      294.10195     -2339.8894      6.4626623     -2333.4267     -9617.8519    
     26350   163.82907      324.76703     -2340.7972      7.1365038     -2333.6606     -8830.6304    
     26400   149.61961      296.59887     -2340.2103      6.5175302     -2333.6928     -9359.8215    
     26450   169.8013       336.60611     -2340.6336      7.3966582     -2333.2369     -7354.4245    
     26500   133.18082      264.01138     -2339.0369      5.8014454     -2333.2354     -7728.2671    
     26550   156.03435      309.31516     -2340.0656      6.7969608     -2333.2686     -8721.4646    
     26600   159.42076      316.02822     -2340.5317      6.9444751     -2333.5872     -12644.406    
     26650   144.31206      286.07743     -2339.8925      6.2863297     -2333.6062     -12381.346    
     26700   145.05086      287.542       -2339.8171      6.3185126     -2333.4986     -10062.987    
     26750   161.74826      320.64213     -2340.3981      7.0458623     -2333.3523     -9357.9444    
     26800   175.10856      347.12698     -2341.0479      7.6278462     -2333.42       -10493.381    
     26850   179.15432      355.14709     -2340.9855      7.8040819     -2333.1815     -6486.5155    
     26900   140.89174      279.29715     -2339.3251      6.1373382     -2333.1877     -11471.122    
     26950   160.36177      317.89362     -2340.1933      6.9854658     -2333.2078     -10523.739    
     27000   169.15619      335.32728     -2341.2777      7.368557      -2333.9092     -11566.811    
     27050   165.01773      327.12338     -2340.5101      7.1882827     -2333.3218     -11540.836    
     27100   141.18353      279.87559     -2339.3679      6.1500491     -2333.2179     -12872.397    
     27150   150.45237      298.2497      -2339.9711      6.5538058     -2333.4173     -13374.518    
     27200   152.59452      302.49619     -2339.9586      6.6471193     -2333.3115     -13436.845    
     27250   165.12941      327.34478     -2340.2245      7.1931477     -2333.0314     -8005.0841    
     27300   126.95998      251.6795      -2338.5685      5.5304619     -2333.038      -12945.461    
     27350   160.71925      318.60227     -2340.0554      7.0010378     -2333.0544     -12466.523    
     27400   149.51647      296.39442     -2340.4842      6.5130376     -2333.9711     -14058.95     
     27450   173.26586      343.47409     -2340.6731      7.5475767     -2333.1256     -11298.837    
     27500   142.99445      283.46547     -2339.6547      6.228934      -2333.4257     -15329.249    
     27550   167.97795      332.99158     -2340.431       7.3172318     -2333.1138     -10927.242    
     27600   158.61983      314.44049     -2340.9195      6.909586      -2334.0099     -13363.397    
     27650   166.91232      330.87913     -2340.2725      7.2708123     -2333.0017     -9593.018     
     27700   149.42284      296.2088      -2339.5196      6.5089587     -2333.0107     -11702.792    
     27750   174.96266      346.83775     -2340.6491      7.6214906     -2333.0276     -8670.9964    
     27800   146.71271      290.83638     -2340.4315      6.390904      -2334.0405     -8071.9949    
     27850   173.83991      344.61205     -2340.7682      7.5725827     -2333.1956     -10731.779    
     27900   146.63811      290.68849     -2339.8787      6.3876541     -2333.491      -12974.353    
     27950   159.76106      316.70281     -2340.2516      6.9592988     -2333.2923     -12041.568    
     28000   162.56026      322.25181     -2340.6529      7.0812338     -2333.5717     -9288.8046    
     28050   145.12858      287.69606     -2339.4065      6.3218979     -2333.0846     -6957.5329    
     28100   141.05086      279.61259     -2339.2441      6.1442699     -2333.0998     -7585.9189    
     28150   166.61458      330.2889      -2340.2926      7.2578424     -2333.0347     -10923.296    
     28200   144.05945      285.57667     -2340.2829      6.275326      -2334.0075     -9418.599     
     28250   166.17298      329.4135      -2340.341       7.2386062     -2333.1024     -8912.5435    
     28300   145.57173      288.57454     -2339.4622      6.3412018     -2333.121      -9033.2222    
     28350   162.33672      321.80866     -2340.209       7.0714959     -2333.1375     -7361.409     
     28400   173.11871      343.18239     -2340.8455      7.541167      -2333.3043     -8556.3908    
     28450   144.79406      287.03293     -2339.6326      6.307326      -2333.3253     -9688.7497    
     28500   166.55049      330.16186     -2340.1546      7.2550508     -2332.8996     -9259.6923    
     28550   153.2075       303.71134     -2339.9599      6.6738213     -2333.286      -10441.583    
     28600   170.48623      337.96389     -2340.6468      7.4264943     -2333.2204     -12692.319    
     28650   154.01859      305.31921     -2339.7156      6.709153      -2333.0065     -12009.262    
     28700   160.96881      319.097       -2340.0441      7.0119091     -2333.0322     -10524.857    
     28750   171.27155      339.52065     -2340.4454      7.4607031     -2332.9847     -9363.3024    
     28800   159.09524      315.38291     -2340.6269      6.930295      -2333.6966     -10764.759    
     28850   161.456        320.06277     -2340.022       7.0331313     -2332.9889     -11338.921    
     28900   145.70413      288.83702     -2339.3542      6.3469695     -2333.0073     -6598.4681    
     28950   164.93714      326.96363     -2340.1822      7.1847722     -2332.9975     -14381.618    
     29000   143.1462       283.76629     -2340.101       6.2355442     -2333.8655     -11356.612    
     29050   154.42293      306.12075     -2339.771       6.7267662     -2333.0443     -12699.8      
     29100   139.77553      277.08443     -2339.136       6.0887156     -2333.0473     -8565.3383    
     29150   150.85725      299.05232     -2339.6369      6.5714428     -2333.0655     -10883.403    
     29200   133.85868      265.35515     -2339.9161      5.8309737     -2334.0851     -13792.142    
     29250   159.13223      315.45625     -2340.0052      6.9319064     -2333.0733     -13035.432    
     29300   140.23715      277.99953     -2339.1893      6.108824      -2333.0805     -8331.309     
     29350   167.85967      332.75712     -2340.403       7.3120796     -2333.091      -11175.09     
     29400   153.63309      304.55501     -2340.7369      6.6923602     -2334.0445     -11476.444    
     29450   174.1899       345.30586     -2340.6522      7.5878286     -2333.0644     -11216.735    
     29500   152.17426      301.66308     -2339.6852      6.6288124     -2333.0564     -12126.282    
     29550   160.92606      319.01226     -2340.0855      7.010047      -2333.0754     -9781.8499    
     29600   157.1238       311.47483     -2340.7989      6.8444178     -2333.9545     -12312.916    
     29650   157.87132      312.95668     -2339.9345      6.8769805     -2333.0575     -11479.316    
     29700   132.76579      263.18865     -2338.8482      5.7833665     -2333.0648     -9289.5473    
     29750   155.40186      308.06134     -2339.8408      6.769409      -2333.0714     -12144.553    
     29800   154.88396      307.03466     -2339.9945      6.7468487     -2333.2476     -8767.0285    
     29850   153.65988      304.60812     -2339.8564      6.6935273     -2333.1629     -8207.1427    
     29900   162.62393      322.37803     -2340.2584      7.0840072     -2333.1744     -9915.5358    
     29950   159.25159      315.69285     -2340.0269      6.9371056     -2333.0898     -7971.5761    
     30000   161.77845      320.70199     -2340.2925      7.0471775     -2333.2453     -9591.5209    
     30050   154.22777      305.73388     -2339.832       6.718265      -2333.1137     -8196.511     
     30100   148.26034      293.90431     -2339.5717      6.4583194     -2333.1134     -5832.7191    
     30150   159.01701      315.22784     -2340.4207      6.9268873     -2333.4938     -9961.3665    
     30200   167.68952      332.41982     -2340.4113      7.3046678     -2333.1067     -9291.4612    
     30250   141.77186      281.04185     -2339.2906      6.1756768     -2333.1149     -5329.5221    
     30300   164.36833      325.83604     -2340.2792      7.1599944     -2333.1192     -6589.2642    
     30350   152.63267      302.57182     -2340.5206      6.6487811     -2333.8718     -9687.0925    
     30400   162.95807      323.04041     -2340.1958      7.0985625     -2333.0973     -8855.5928    
     30450   146.96964      291.34569     -2339.5067      6.4020956     -2333.1046     -8607.1251    
     30500   160.82455      318.81103     -2340.2185      7.0056252     -2333.2128     -10424.951    
     30550   172.25494      341.47009     -2340.5611      7.5035404     -2333.0576     -9826.6376    
     30600   149.40794      296.17926     -2339.7645      6.5083097     -2333.2562     -9622.7746    
     30650   160.94971      319.05913     -2340.2836      7.011077      -2333.2725     -8558.7224    
     30700   159.11303      315.41819     -2339.9797      6.9310702     -2333.0487     -9867.8275    
     30750   164.36037      325.82026     -2340.5004      7.1596477     -2333.3408     -11375.952    
     30800   152.12363      301.56273     -2339.9216      6.6266071     -2333.295      -9044.1554    
     30850   156.55902      310.35522     -2340.1243      6.8198154     -2333.3044     -11596.48     
     30900   154.90058      307.06762     -2340.404       6.7475729     -2333.6564     -13512.533    
     30950   155.81819      308.88665     -2340.0237      6.7875446     -2333.2362     -12012.033    
     31000   147.89885      293.18773     -2339.6948      6.442573      -2333.2522     -10185.107    
     31050   159.99202      317.16065     -2340.2376      6.9693594     -2333.2682     -9203.9092    
     31100   148.54901      294.47656     -2340.3943      6.4708941     -2333.9234     -10555.84     
     31150   153.92873      305.14106     -2340.0171      6.7052383     -2333.3119     -11140.761    
     31200   143.55548      284.57763     -2339.5744      6.2533729     -2333.3211     -8745.3373    
     31250   171.02679      339.03546     -2340.7885      7.4500413     -2333.3384     -12054.038    
     31300   156.10164      309.44854     -2340.2273      6.7998918     -2333.4274     -13325.565    
     31350   141.80821      281.11393     -2339.557       6.1772606     -2333.3797     -10470.541    
     31400   155.90712      309.06295     -2340.1949      6.7914186     -2333.4034     -9518.5018    
     31450   176.91333      350.70466     -2341.1229      7.706463      -2333.4164     -10482.032    
     31500   157.69422      312.6056      -2340.2707      6.8692657     -2333.4015     -11624.796    
     31550   145.35913      288.15309     -2339.6797      6.3319407     -2333.3477     -11651.467    
     31600   148.1731       293.73138     -2339.8089      6.4545193     -2333.3544     -10820.345    
     31650   162.94359      323.01171     -2340.2357      7.0979318     -2333.1377     -11234.914    
     31700   168.21717      333.46581     -2340.8175      7.3276526     -2333.4899     -11174.13     
     31750   147.97522      293.33911     -2339.8391      6.4458995     -2333.3932     -9591.6026    
     31800   153.34597      303.98584     -2340.086       6.679853      -2333.4062     -8448.347     
     31850   143.75182      284.96684     -2339.9626      6.2619255     -2333.7006     -8643.2467    
     31900   169.30157      335.61547     -2340.9511      7.3748898     -2333.5762     -10186.788    
     31950   149.95558      297.26488     -2340.1169      6.5321653     -2333.5847     -10454.26     
     32000   153.00724      303.31436     -2340.2669      6.6650978     -2333.6018     -8376.9061    
     32050   147.61535      292.62573     -2340.4016      6.4302236     -2333.9713     -12720.563    
     32100   153.63328      304.55539     -2340.3414      6.6923686     -2333.649      -10156.536    
     32150   148.41851      294.21787     -2340.124       6.4652095     -2333.6588     -8476.3169    
     32200   162.04398      321.22836     -2340.7296      7.0587442     -2333.6708     -8655.7271    
     32250   160.11868      317.41174     -2341.0221      6.9748768     -2334.0473     -12252.022    
     32300   155.58981      308.43392     -2340.4485      6.7775963     -2333.6709     -11175.418    
     32350   151.73485      300.79203     -2340.2933      6.6096717     -2333.6837     -9215.4612    
     32400   153.83071      304.94676     -2340.3927      6.7009687     -2333.6917     -8377.9904    
     32450   140.30567      278.13536     -2340.1394      6.1118089     -2334.0276     -11815.043    
     32500   155.59489      308.44398     -2340.55        6.7778173     -2333.7722     -11539.16     
     32550   151.74787      300.81783     -2340.3961      6.6102385     -2333.7858     -9863.8172    
     32600   137.56549      272.70336     -2339.7964      5.9924448     -2333.804      -10511.952    
     32650   147.58972      292.57491     -2340.291       6.4291068     -2333.8619     -11682.678    
     32700   162.65012      322.42995     -2340.9356      7.0851482     -2333.8505     -10945.031    
     32750   153.41117      304.11509     -2340.5447      6.6826932     -2333.862      -7174.4483    
     32800   142.66182      282.80608     -2340.129       6.2144442     -2333.9146     -10974.789    
     32850   168.85959      334.73931     -2340.9801      7.3556368     -2333.6245     -11981.077    
[...]
    192000   170.15591      337.30906     -2344.7647      7.412105      -2337.3526     -10918.198    
    192050   162.18665      321.51117     -2344.2513      7.0649588     -2337.1863     -10745.192    
    192100   163.8451       324.79882     -2343.9014      7.1372022     -2336.7641     -12354.027    
    192150   161.36406      319.88052     -2343.9321      7.0291264     -2336.9029     -8509.5317    
    192200   153.19673      303.68998     -2343.5116      6.6733519     -2336.8383     -11037.442    
    192250   169.27744      335.56763     -2344.2476      7.3738385     -2336.8738     -8592.2817    
    192300   159.65106      316.48476     -2343.9388      6.9545072     -2336.9843     -7455.0958    
    192350   151.10734      299.54808     -2343.6556      6.5823369     -2337.0733     -8120.9779    
    192400   174.69531      346.30775     -2344.5633      7.6098443     -2336.9535     -8917.2874    
    192450   169.84789      336.69847     -2344.3673      7.3986878     -2336.9686     -10450.179    
    192500   149.06483      295.4991      -2343.4651      6.4933637     -2336.9717     -9429.5256    
    192550   158.35866      313.92276     -2343.8277      6.8982093     -2336.9295     -10491.549    
    192600   161.37415      319.90051     -2344.1364      7.0295658     -2337.1069     -10027.97     
    192650   156.81461      310.86191     -2343.6677      6.8309494     -2336.8367     -10810.713    
    192700   154.49114      306.25597     -2343.7504      6.7297374     -2337.0207     -11013.422    
    192750   166.61619      330.29209     -2344.0739      7.2579126     -2336.816      -9597.9724    
    192800   155.42917      308.11546     -2343.8418      6.7705984     -2337.0712     -11521.852    
    192850   154.14065      305.56117     -2343.7595      6.7144698     -2337.045      -15352.656    
    192900   159.96472      317.10654     -2344.1005      6.9681702     -2337.1323     -9634.6056    
    192950   164.74872      326.59012     -2344.3269      7.1765647     -2337.1504     -10354.808    
    193000   168.69695      334.4169      -2344.5011      7.348552      -2337.1526     -12275.259    
    193050   153.72514      304.73747     -2343.8193      6.6963697     -2337.1229     -11276.78     
    193100   157.36123      311.94549     -2343.9722      6.8547602     -2337.1174     -14871.598    
    193150   158.94485      315.0848      -2344.1462      6.9237441     -2337.2225     -11127.742    
    193200   154.9846       307.23418     -2344.0375      6.7512329     -2337.2863     -8372.5328    
    193250   148.53764      294.45403     -2343.6787      6.470399      -2337.2083     -12432.727    
    193300   162.07708      321.29397     -2344.3915      7.0601859     -2337.3313     -8722.861     
    193350   152.06795      301.45235     -2343.8332      6.6241818     -2337.209      -12725.901    
    193400   164.40104      325.90089     -2344.2816      7.1614194     -2337.1202     -9889.1856    
    193450   152.90768      303.11698     -2343.9394      6.6607606     -2337.2786     -9078.2323    
    193500   152.73694      302.77852     -2343.9634      6.6533231     -2337.3101     -10573.107    
    193550   167.66382      332.36887     -2344.5765      7.3035482     -2337.2729     -11731.399    
    193600   171.00558      338.99342     -2344.7695      7.4491176     -2337.3204     -12608.166    
    193650   152.15678      301.62844     -2343.8665      6.6280511     -2337.2384     -11803.204    
    193700   173.42626      343.79206     -2344.8339      7.5545639     -2337.2794     -11765.052    
    193750   168.66131      334.34624     -2344.5956      7.3469994     -2337.2486     -10535.826    
    193800   163.50394      324.12252     -2344.5078      7.1223411     -2337.3855     -8628.3662    
    193850   149.29087      295.9472      -2343.8545      6.5032102     -2337.3513     -9521.0536    
    193900   153.23085      303.75762     -2344.0754      6.6748383     -2337.4006     -13716.532    
    193950   154.34006      305.95646     -2344.0993      6.7231561     -2337.3762     -12931.161    
    194000   144.01739      285.49329     -2343.6936      6.2734937     -2337.4201     -8597.1713    
    194050   147.74675      292.8862      -2343.8179      6.4359473     -2337.3819     -7854.6673    
    194100   159.26686      315.72313     -2344.3384      6.937771      -2337.4006     -7125.3974    
    194150   156.78909      310.8113      -2344.205       6.8298374     -2337.3751     -10405.589    
    194200   154.532        306.33697     -2344.104       6.7315173     -2337.3725     -10893.872    
    194250   159.22795      315.64599     -2344.3827      6.9360759     -2337.4466     -10901.617    
    194300   149.14646      295.66092     -2343.9279      6.4969194     -2337.431      -7781.7885    
    194350   153.53711      304.36475     -2344.1812      6.6881794     -2337.493      -11627.262    
    194400   156.02935      309.30523     -2344.2757      6.7967427     -2337.479      -9693.1341    
    194450   148.62948      294.63608     -2343.9317      6.4743995     -2337.4573     -9490.8819    
    194500   153.67797      304.64397     -2344.201       6.6943149     -2337.5067     -8955.1597    
    194550   142.57923      282.64236     -2343.6929      6.2108468     -2337.482      -13264.264    
    194600   166.01394      329.09823     -2344.7451      7.2316785     -2337.5134     -14722.517    
    194650   150.66975      298.68062     -2344.0768      6.5632751     -2337.5136     -13698.36     
    194700   147.92267      293.23495     -2343.8139      6.4436106     -2337.3703     -12577.044    
    194750   153.93888      305.1612      -2343.8311      6.7056807     -2337.1255     -11784.775    
    194800   145.6793       288.78778     -2343.5256      6.3458877     -2337.1797     -14309.406    
    194850   156.8964       311.02405     -2343.9937      6.8345123     -2337.1592     -11434.755    
    194900   149.67534      296.70934     -2343.6917      6.5199577     -2337.1717     -12407.443    
    194950   166.79219      330.64099     -2344.4539      7.2655795     -2337.1883     -12829.554    
    195000   154.65378      306.57837     -2343.9365      6.7368219     -2337.1997     -7262.9279    
    195050   155.167        307.59577     -2343.968       6.7591785     -2337.2088     -10786.522    
    195100   160.51412      318.19563     -2344.2234      6.9921022     -2337.2313     -12951.095    
    195150   151.21839      299.76823     -2343.8504      6.5871744     -2337.2632     -13089.331    
    195200   157.28197      311.78837     -2344.0925      6.8513076     -2337.2412     -11263.612    
    195250   161.75784      320.66113     -2344.3005      7.0462797     -2337.2542     -10838.721    
    195300   146.67133      290.75435     -2343.655       6.3891014     -2337.2659     -7914.1379    
    195350   138.49232      274.54066     -2343.2951      6.0328182     -2337.2623     -9165.8568    
    195400   145.86928      289.16439     -2343.4568      6.3541633     -2337.1027     -8508.6836    
    195450   156.3475       309.93593     -2343.9327      6.8106018     -2337.1221     -10126.161    
    195500   157.24188      311.70891     -2343.9985      6.8495615     -2337.149      -12079.459    
    195550   148.70093      294.77772     -2343.6175      6.4775119     -2337.14       -11836.364    
    195600   160.92205      319.0043      -2344.16        7.0098721     -2337.1501     -11980.555    
    195650   161.746        320.63766     -2344.2477      7.0457639     -2337.2019     -8986.5163    
    195700   142.91106      283.30016     -2343.4713      6.2253013     -2337.246      -11712.121    
    195750   158.64481      314.49001     -2344.1575      6.9106741     -2337.2469     -13090.01     
    195800   153.98576      305.25412     -2343.8998      6.7077227     -2337.1921     -7657.9951    
    195850   158.75221      314.70292     -2344.0963      6.9153526     -2337.1809     -10662.142    
    195900   149.65311      296.66529     -2343.7323      6.5189898     -2337.2133     -9330.1466    
    195950   151.46843      300.26388     -2343.7326      6.598066      -2337.1345     -12313.772    
    196000   150.04743      297.44697     -2343.643       6.5361666     -2337.1068     -8234.9335    
    196050   168.28798      333.60617     -2344.4571      7.3307369     -2337.1264     -12320.3      
    196100   151.40912      300.14632     -2343.716       6.5954826     -2337.1205     -10799.248    
    196150   154.59652      306.46488     -2343.8876      6.734328      -2337.1533     -10322.858    
    196200   156.51717      310.27226     -2343.9807      6.8179924     -2337.1627     -11593.126    
    196250   157.07039      311.36896     -2344.1024      6.8420915     -2337.2603     -10010.34     
    196300   156.10153      309.44832     -2343.9504      6.7998869     -2337.1505     -8320.0194    
    196350   149.38268      296.12919     -2343.3252      6.5072094     -2336.818      -9937.7038    
    196400   140.09574      277.7192      -2342.8587      6.1026642     -2336.756      -10081.861    
    196450   149.20619      295.77932     -2343.3583      6.4995213     -2336.8587     -15266.325    
    196500   156.01204      309.27093     -2343.6202      6.7959888     -2336.8242     -9634.1063    
    196550   164.85178      326.79441     -2344.0087      7.1810537     -2336.8277     -11790.957    
    196600   155.18912      307.63961     -2343.6029      6.760142      -2336.8427     -9749.0098    
    196650   157.9653       313.14298     -2343.7284      6.8810743     -2336.8473     -11216.243    
    196700   165.30182      327.68654     -2344.0685      7.2006577     -2336.8678     -9360.4611    
    196750   152.32696      301.9658      -2343.5187      6.6354644     -2336.8832     -8131.7292    
    196800   177.73881      352.34106     -2344.6268      7.7424216     -2336.8844     -9430.0426    
    196850   158.5936       314.3885      -2343.7651      6.9084435     -2336.8567     -8646.5282    
    196900   161.39235      319.93661     -2343.913       7.0303589     -2336.8826     -12419.701    
    196950   148.42397      294.22869     -2343.3661      6.4654473     -2336.9007     -9750.1574    
    197000   159.01505      315.22396     -2343.8383      6.926802      -2336.9115     -10445.124    
    197050   151.63297      300.59007     -2343.539       6.6052336     -2336.9338     -12174.462    
    197100   160.56012      318.28683     -2343.9521      6.9941063     -2336.958      -10732.232    
    197150   153.46548      304.22274     -2343.6296      6.6850589     -2336.9446     -12523.572    
    197200   150.15437      297.65895     -2343.3311      6.5408246     -2336.7902     -8764.0758    
    197250   161.74847      320.64256     -2343.8772      7.0458717     -2336.8314     -10114.195    
    197300   147.62978      292.65432     -2343.262       6.4308518     -2336.8311     -9837.2746    
    197350   163.07925      323.28063     -2343.9797      7.1038413     -2336.8759     -11219.082    
    197400   159.22882      315.64771     -2343.8076      6.9361138     -2336.8715     -12710.111    
    197450   146.0733       289.56883     -2343.2434      6.3630506     -2336.8803     -10423.054    
    197500   150.88378      299.10491     -2343.4767      6.5725986     -2336.9041     -12731.897    
    197550   161.5704       320.28956     -2343.9149      7.0381147     -2336.8768     -11828.958    
    197600   157.40966      312.0415      -2343.6993      6.8568701     -2336.8425     -14441.827    
    197650   155.24527      307.75091     -2343.691       6.7625876     -2336.9284     -13053.668    
    197700   153.46864      304.22901     -2343.6461      6.6851966     -2336.961      -10941.383    
    197750   159.23969      315.66927     -2343.709       6.9365874     -2336.7724     -12488.813    
    197800   170.82049      338.6265      -2344.0232      7.4410548     -2336.5822     -14239.405    
    197850   156.87009      310.97188     -2343.3986      6.833366      -2336.5652     -10128.265    
    197900   161.88422      320.91166     -2343.6298      7.0517849     -2336.5781     -10235.399    
    197950   157.4445       312.11058     -2343.4469      6.8583879     -2336.5885     -11852.372    
    198000   163.31218      323.74238     -2343.7273      7.1139878     -2336.6134     -11853.81     
    198050   175.20969      347.32745     -2344.166       7.6322514     -2336.5337     -11711.455    
    198100   157.61127      312.44116     -2343.4193      6.8656523     -2336.5536     -9176.7547    
    198150   149.76932      296.89564     -2343.0938      6.5240515     -2336.5697     -10744.868    
    198200   167.8907       332.81863     -2343.9054      7.3134314     -2336.5919     -10562.345    
    198250   153.98625      305.2551      -2343.3121      6.7077442     -2336.6043     -12934.64     
    198300   165.82215      328.71802     -2343.8486      7.2233237     -2336.6252     -8516.8819    
    198350   157.38567      311.99395     -2343.3985      6.8558253     -2336.5427     -9038.2163    
    198400   153.78601      304.85816     -2343.2579      6.6990216     -2336.5589     -12178.734    
    198450   160.79064      318.7438      -2343.5886      7.0041478     -2336.5844     -10000.656    
    198500   151.7277       300.77786     -2343.2119      6.6093603     -2336.6025     -8616.0494    
    198550   154.21388      305.70635     -2343.3352      6.71766       -2336.6175     -10173.846    
    198600   158.81635      314.83006     -2343.5529      6.9181464     -2336.6347     -10125.573    
    198650   161.77159      320.68839     -2343.6093      7.0468787     -2336.5624     -9897.1947    
    198700   165.76729      328.60928     -2343.797       7.2209342     -2336.5761     -9286.2162    
    198750   169.58402      336.17538     -2343.9794      7.3871933     -2336.5922     -9540.9877    
    198800   163.99169      325.08941     -2343.7588      7.1435877     -2336.6153     -10235.056    
    198850   162.61402      322.35839     -2343.745       7.0835757     -2336.6614     -11451.574    
    198900   162.32431      321.78408     -2343.7361      7.0709557     -2336.6651     -10338.765    
    198950   173.83233      344.59702     -2344.1666      7.5722524     -2336.5943     -8537.321     
    199000   167.49984      332.0438      -2343.8988      7.2964052     -2336.6024     -11357.134    
    199050   157.67249      312.56253     -2343.5832      6.8683192     -2336.7149     -10348.014    
    199100   156.29751      309.83683     -2343.4632      6.8084241     -2336.6548     -8115.1634    
    199150   148.01166      293.41135     -2343.1914      6.447487      -2336.7439     -10184.81     
    199200   165.4498       327.97991     -2343.9534      7.2071041     -2336.7463     -8689.4982    
    199250   176.24936      349.38844     -2344.3001      7.67754       -2336.6226     -12000.343    
    199300   169.92444      336.85022     -2344.021       7.4020224     -2336.6189     -14006.961    
    199350   166.80995      330.6762      -2343.9038      7.2663531     -2336.6374     -11635.208    
    199400   155.36524      307.98875     -2343.4475      6.7678139     -2336.6797     -11852.167    
    199450   150.48519      298.31475     -2343.2353      6.5552354     -2336.68       -12321.581    
    199500   158.16681      313.54243     -2343.5935      6.8898518     -2336.7037     -9226.7218    
    199550   171.2732       339.52393     -2344.0829      7.460775      -2336.6222     -12346.619    
    199600   176.51182      349.90873     -2344.4357      7.688973      -2336.7467     -12179.966    
    199650   164.15709      325.4173      -2343.8798      7.1507928     -2336.729      -11529.858    
    199700   162.99202      323.1077      -2343.8778      7.1000413     -2336.7778     -12991.605    
    199750   167.4924       332.02904     -2344.0099      7.2960808     -2336.7138     -10728.754    
    199800   150.74305      298.82593     -2343.3957      6.5664682     -2336.8292     -12326.809    
    199850   151.06344      299.46106     -2343.3259      6.5804247     -2336.7455     -12041.684    
    199900   157.78982      312.79512     -2343.6456      6.8734302     -2336.7721     -12410.917    
    199950   158.50623      314.21529     -2343.6836      6.9046373     -2336.779      -13448.871    
    200000   159.50998      316.20508     -2343.6744      6.9483615     -2336.7261     -9031.793     
colvars: Saving collective variables state to "out.colvars.state".
colvars:   Writing TI PMF to file "out.metadynamics1.ti.pmf".
Loop time of 1026.14 on 4 procs for 200000 steps with 338 atoms

Performance: 8.420 ns/day, 2.850 hours/ns, 194.906 timesteps/s, 65.878 katom-step/s
136.4% CPU use with 4 MPI tasks x 1 OpenMP threads

MPI task timing breakdown:
Section |  min time  |  avg time  |  max time  |%varavg| %total
---------------------------------------------------------------
Pair    | 805.07     | 875.19     | 945.92     | 191.8 | 85.29
Neigh   | 0.10596    | 1.2797     | 2.1168     |  68.6 |  0.12
Comm    | 12.062     | 73.226     | 150.93     | 608.5 |  7.14
Output  | 40.272     | 45.387     | 51.561     |  74.7 |  4.42
Modify  | 12.555     | 22.834     | 49.201     | 320.1 |  2.23
Other   |            | 8.223      |            |       |  0.80

Nlocal:           84.5 ave         120 max           4 min
Histogram: 1 0 0 0 0 0 0 1 0 2
Nghost:        1150.75 ave        1679 max         695 min
Histogram: 1 0 0 1 0 1 0 0 0 1
Neighs:              0 ave           0 max           0 min
Histogram: 4 0 0 0 0 0 0 0 0 0
FullNghs:      15231.5 ave       23596 max         421 min
Histogram: 1 0 0 0 0 1 0 0 0 2

Total # of neighbors = 60926
Ave neighs/atom = 180.25444
Neighbor list builds = 2234
Dangerous builds = 0
write_data final.data
System init for write_data ...
Generated 0 of 6 mixed pair_coeff terms from geometric mixing rule

CITE-CITE-CITE-CITE-CITE-CITE-CITE-CITE-CITE-CITE-CITE-CITE-CITE

Your simulation uses code contributions which should be cited:

- Colvars module (Fiorin2013, plus other works listed for specific features)


% Colvars module:
% Colvars-LAMMPS interface:
% Metadynamics colvar bias implementation:
% Optimal rotation via flexible fitting:
% distanceZ colvar component:

@article{Fiorin2013,
  author = {Fiorin, Giacomo and Klein, Michael L.{} and H\'enin, J\'er\^ome},
  title = {Using collective variables to drive molecular dynamics simulations},
  journal = {Mol. Phys.},
  year = {2013},
  volume = {111},
  number = {22-23},
  pages = {3345--3362},
  publisher = {Taylor & Francis},
  doi = {10.1080/00268976.2013.813594},
  url = {https://doi.org/10.1080/00268976.2013.813594}
}


% Internal-forces free energy estimator:

@article{Henin2010,
  author = {H\'enin, J\'er\^ome and Fiorin, Giacomo and Chipot, Christophe and Klein, Michael L.},
  title = {Exploring multidimensional free energy landscapes using time-dependent biases on collective variables},
  journal = {J. Chem. Theory Comput.},
  year = {2010},
  volume = {6},
  pages = {35-47},
  number = {1},
  doi = {10.1021/ct9004432},
  pmid = {26614317},
  url = {https://doi.org/10.1021/ct9004432}
}


% LAMMPS engine:

@article{Thompson2022,
  title = {{LAMMPS} - a flexible simulation tool for particle-based materials modeling at the atomic, meso, and continuum scales},
  author = {Thompson, Aidan P. and Aktulga, H. Metin and Berger, Richard and Bolintineanu, Dan S. and Brown, W. Michael and Crozier, Paul S. and {in't Veld}, Pieter J. and Kohlmeyer, Axel and Moore, Stan G. and Nguyen, Trung Dac and Shan, Ray and Stevens, Mark J. and Tranchida, Julien and Trott, Christian and Plimpton, Steven J.},
  journal = {Comp. Phys. Comm.},
  volume = {271},
  pages = {108171},
  year = {2022},
  doi = {10.1016/j.cpc.2021.108171},
  url = {https://doi.org/10.1016/j.cpc.2021.108171}
}

CITE-CITE-CITE-CITE-CITE-CITE-CITE-CITE-CITE-CITE-CITE-CITE-CITE

Total wall time: 0:17:28
