 # Fe168 O56 H113 Cl
  
         338  atoms
           4  atom types
 
      0.000000000000      11.328000000000  xlo xhi
      0.000000000000      12.015000000000  ylo yhi
      0.000000000000      32.000000000000  zlo zhi
 
Masses
 
            1   55.84500000             # Fe
            2   15.99900000             # O
            3   1.00800000              # H
            4   35.45000000             # Cl
 
Atoms # atomic
 
         1    1        0.000000000000       0.000000000000       0.000000000000
         2    1        0.000000000000       2.002540050000       2.002784000000
         3    1       11.328000000000       0.000000000000       4.005120000000
         4    1        0.000000000000       2.002540050000       6.007904000000
         5    1        0.000000000000       0.000000000000       8.009856000000
         6    1        0.000000000000       2.002540050000      10.011808000000
         7    1        0.000000000000       0.000000000000      12.015008000000
         8    1        1.416000000000       2.002540050000       0.000000000000
         9    1        1.416000000000       0.000000000000       2.002784000000
        10    1        1.416000000000       2.002540050000       4.005120000000
        11    1        1.416000000000       0.000000000000       6.007904000000
        12    1        1.416000000000       2.002540050000       8.009856000000
        13    1        1.416000000000       0.000000000000      10.011808000000
        14    1        1.416000000000       2.002540050000      12.015008000000
        15    1        2.832000000000       0.000000000000       0.000000000000
        16    1        2.832000000000       2.002540050000       2.002784000000
        17    1        2.832000000000       0.000000000000       4.005120000000
        18    1        2.832000000000       2.002540050000       6.007904000000
        19    1        2.832000000000       0.000000000000       8.009856000000
        20    1        2.832000000000       2.002540050000      10.011808000000
        21    1        2.832000000000       0.000000000000      12.015008000000
        22    1        4.248000000000       2.002540050000       0.000000000000
        23    1        4.248000000000       0.000000000000       2.002784000000
        24    1        4.248000000000       2.002540050000       4.005120000000
        25    1        4.248000000000       0.000000000000       6.007904000000
        26    1        4.248000000000       2.002540050000       8.009856000000
        27    1        4.248000000000       0.000000000000      10.011808000000
        28    1        4.248000000000       2.002540050000      12.015008000000
        29    1        5.664000000000       0.000000000000       0.000000000000
        30    1        5.664000000000       2.002540050000       2.002784000000
        31    1        5.664000000000       0.000000000000       4.005120000000
        32    1        5.664000000000       2.002540050000       6.007904000000
        33    1        5.664000000000       0.000000000000       8.009856000000
        34    1        5.664000000000       2.002540050000      10.011808000000
        35    1        5.664000000000       0.000000000000      12.015008000000
        36    1        7.080000000000       2.002540050000       0.000000000000
        37    1        7.080000000000       0.000000000000       2.002784000000
        38    1        7.080000000000       2.002540050000       4.005120000000
        39    1        7.080000000000       0.000000000000       6.007904000000
        40    1        7.080000000000       2.002540050000       8.009856000000
        41    1        7.080000000000       0.000000000000      10.011808000000
        42    1        7.080000000000       2.002540050000      12.015008000000
        43    1        8.496000000000       0.000000000000       0.000000000000
        44    1        8.496000000000       2.002540050000       2.002784000000
        45    1        8.496000000000       0.000000000000       4.005120000000
        46    1        8.496000000000       2.002540050000       6.007904000000
        47    1        8.496000000000       0.000000000000       8.009856000000
        48    1        8.496000000000       2.002540050000      10.011808000000
        49    1        8.496000000000       0.000000000000      12.015008000000
        50    1        9.912000000000       2.002540050000       0.000000000000
        51    1        9.912000000000       0.000000000000       2.002784000000
        52    1        9.912000000000       2.002540050000       4.005120000000
        53    1        9.912000000000       0.000000000000       6.007904000000
        54    1        9.912000000000       2.002540050000       8.009856000000
        55    1        9.912000000000       0.000000000000      10.011808000000
        56    1        9.912000000000       2.002540050000      12.015008000000
        57    1        0.000000000000       4.004959950000       0.000000000000
        58    1        0.000000000000       6.007500000000       2.002784000000
        59    1        0.000000000000       4.004959950000       4.005120000000
        60    1        0.000000000000       6.007500000000       6.007904000000
        61    1        0.000000000000       4.004959950000       8.009856000000
        62    1       11.328000000000       6.007500000000      10.011808000000
        63    1        0.000000000000       4.004959950000      12.015008000000
        64    1        1.416000000000       6.007500000000       0.000000000000
        65    1        1.416000000000       4.004959950000       2.002784000000
        66    1        1.416000000000       6.007500000000       4.005120000000
        67    1        1.416000000000       4.004959950000       6.007904000000
        68    1        1.416000000000       6.007500000000       8.009856000000
        69    1        1.416000000000       4.004959950000      10.011808000000
        70    1        1.416000000000       6.007500000000      12.015008000000
        71    1        2.832000000000       4.004959950000       0.000000000000
        72    1        2.832000000000       6.007500000000       2.002784000000
        73    1        2.832000000000       4.004959950000       4.005120000000
        74    1        2.832000000000       6.007500000000       6.007904000000
        75    1        2.832000000000       4.004959950000       8.009856000000
        76    1        2.832000000000       6.007500000000      10.011808000000
        77    1        2.832000000000       4.004959950000      12.015008000000
        78    1        4.248000000000       6.007500000000       0.000000000000
        79    1        4.248000000000       4.004959950000       2.002784000000
        80    1        4.248000000000       6.007500000000       4.005120000000
        81    1        4.248000000000       4.004959950000       6.007904000000
        82    1        4.248000000000       6.007500000000       8.009856000000
        83    1        4.248000000000       4.004959950000      10.011808000000
        84    1        4.248000000000       6.007500000000      12.015008000000
        85    1        5.664000000000       4.004959950000       0.000000000000
        86    1        5.664000000000       6.007500000000       2.002784000000
        87    1        5.664000000000       4.004959950000       4.005120000000
        88    1        5.664000000000       6.007500000000       6.007904000000
        89    1        5.664000000000       4.004959950000       8.009856000000
        90    1        5.664000000000       6.007500000000      10.011808000000
        91    1        5.664000000000       4.004959950000      12.015008000000
        92    1        7.080000000000       6.007500000000       0.000000000000
        93    1        7.080000000000       4.004959950000       2.002784000000
        94    1        7.080000000000       6.007500000000       4.005120000000
        95    1        7.080000000000       4.004959950000       6.007904000000
        96    1        7.080000000000       6.007500000000       8.009856000000
        97    1        7.080000000000       4.004959950000      10.011808000000
        98    1        6.985037376000       6.081139935000      12.191712000000
        99    1        8.496000000000       4.004959950000       0.000000000000
       100    1        8.496000000000       6.007500000000       2.002784000000
       101    1        8.496000000000       4.004959950000       4.005120000000
       102    1        8.496000000000       6.007500000000       6.007904000000
       103    1        8.496000000000       4.004959950000       8.009856000000
       104    1        8.496000000000       6.007500000000      10.011808000000
       105    1        8.496000000000       4.004959950000      12.015008000000
       106    1        9.912000000000       6.007500000000       0.000000000000
       107    1        9.912000000000       4.004959950000       2.002784000000
       108    1        9.912000000000       6.007500000000       4.005120000000
       109    1        9.912000000000       4.004959950000       6.007904000000
       110    1        9.912000000000       6.007500000000       8.009856000000
       111    1        9.912000000000       4.004959950000      10.011808000000
       112    1        9.912000000000       6.007500000000      12.015008000000
       113    1       11.328000000000       8.010040050000       0.000000000000
       114    1        0.000000000000      10.012495995000       2.002784000000
       115    1       11.328000000000       8.010040050000       4.005120000000
       116    1        0.000000000000      10.012495995000       6.007904000000
       117    1       11.328000000000       8.010040050000       8.009856000000
       118    1        0.000000000000      10.012495995000      10.011808000000
       119    1        0.000000000000       8.010040050000      12.015008000000
       120    1        1.416000000000      10.012495995000       0.000000000000
       121    1        1.416000000000       8.010040050000       2.002784000000
       122    1        1.416000000000      10.012495995000       4.005120000000
       123    1        1.416000000000       8.010040050000       6.007904000000
       124    1        1.416000000000      10.012495995000       8.009856000000
       125    1        1.416000000000       8.010040050000      10.011808000000
       126    1        1.416000000000      10.012495995000      12.015008000000
       127    1        2.832000000000       8.010040050000       0.000000000000
       128    1        2.832000000000      10.012495995000       2.002784000000
       129    1        2.832000000000       8.010040050000       4.005120000000
       130    1        2.832000000000      10.012495995000       6.007904000000
       131    1        2.832000000000       8.010040050000       8.009856000000
       132    1        2.832000000000      10.012495995000      10.011808000000
       133    1        2.832000000000       8.010040050000      12.015008000000
       134    1        4.248000000000      10.012495995000       0.000000000000
       135    1        4.248000000000       8.010040050000       2.002784000000
       136    1        4.248000000000      10.012495995000       4.005120000000
       137    1        4.248000000000       8.010040050000       6.007904000000
       138    1        4.248000000000      10.012495995000       8.009856000000
       139    1        4.248000000000       8.010040050000      10.011808000000
       140    1        4.248000000000      10.012495995000      12.015008000000
       141    1        5.664000000000       8.010040050000       0.000000000000
       142    1        5.664000000000      10.012495995000       2.002784000000
       143    1        5.664000000000       8.010040050000       4.005120000000
       144    1        5.664000000000      10.012495995000       6.007904000000
       145    1        5.664000000000       8.010040050000       8.009856000000
       146    1        5.664000000000      10.012495995000      10.011808000000
       147    1        5.664000000000       8.010040050000      12.015008000000
       148    1        7.080000000000      10.012495995000       0.000000000000
       149    1        7.080000000000       8.010040050000       2.002784000000
       150    1        7.080000000000      10.012495995000       4.005120000000
       151    1        7.080000000000       8.010040050000       6.007904000000
       152    1        7.080000000000      10.012495995000       8.009856000000
       153    1        7.080000000000       8.010040050000      10.011808000000
       154    1        7.080000000000      10.012495995000      12.015008000000
       155    1        8.496000000000       8.010040050000       0.000000000000
       156    1        8.496000000000      10.012495995000       2.002784000000
       157    1        8.496000000000       8.010040050000       4.005120000000
       158    1        8.496000000000      10.012495995000       6.007904000000
       159    1        8.496000000000       8.010040050000       8.009856000000
       160    1        8.496000000000      10.012495995000      10.011808000000
       161    1        8.496000000000       8.010040050000      12.015008000000
       162    1        9.912000000000      10.012495995000       0.000000000000
       163    1        9.912000000000       8.010040050000       2.002784000000
       164    1        9.912000000000      10.012495995000       4.005120000000
       165    1        9.912000000000       8.010040050000       6.007904000000
       166    1        9.912000000000      10.012495995000       8.009856000000
       167    1        9.912000000000       8.010040050000      10.011808000000
       168    1        9.912000000000      10.012495995000      12.015008000000
       169    2        2.957140416000       2.264707350000      13.359712000000
       170    2        7.061104896000       8.292284415000      13.447296000000
       171    2        4.566747264000       0.492771195000      15.829312000000
       172    2        5.072055360000       5.229528750000      15.351296000000
       173    2        7.698044352000       1.272352455000      23.644608000000
       174    2        3.221943744000       8.729570340000      20.666784000000
       175    2        6.979146816000       7.025566995000      15.713216000000
       176    2        5.786682240000       2.246324400000      20.382688000000
       177    2        1.508504448000       5.623404480000      15.788288000000
       178    2        6.090204672000       2.538108675000      15.158112000000
       179    2        1.717324800000      11.408194440000      17.627616000000
       180    2        9.100971840000       6.190764795000      16.941504000000
       181    2        0.601335552000       2.536919190000      24.879904000000
       182    2        5.962402176000       9.934494615000      20.939904000000
       183    2        0.895274496000       5.941765935000      20.295808000000
       184    2        5.435344320000       0.133594785000      22.202400000000
       185    2        8.541538560000       2.027254905000      16.765792000000
       186    2        3.081046080000       0.953894880000      21.679808000000
       187    2        4.754372928000       4.403569590000      22.049696000000
       188    2       10.586605056000       2.508071175000      18.056704000000
       189    2        9.536669376000       0.070287750000      22.473088000000
       190    2        2.629817856000       3.192818040000      22.885504000000
       191    2        2.203896384000       2.868364980000      15.775392000000
       192    2        7.135609152000      11.828202795000      13.261408000000
       193    2       10.958095488000       1.859141025000      15.058304000000
       194    2        8.588708352000      11.330205075000      15.437088000000
       195    2        0.122523648000      11.882895075000      24.103296000000
       196    2        7.658600256000       5.834928555000      19.167904000000
       197    2        3.247137216000       3.604536045000      18.130688000000
       198    2        5.043180288000       5.094215820000      19.202912000000
       199    2        7.909640064000       4.285654380000      23.521312000000
       200    2        7.580765568000      10.627603920000      18.717408000000
       201    2       10.895395008000       9.942304365000      15.212416000000
       202    2        0.571996032000       3.922945560000      21.813088000000
       203    2        6.951336576000       9.218640915000      16.807200000000
       204    2        6.553044096000       1.107614790000      18.054496000000
       205    2        7.351464192000       7.617173580000      21.182688000000
       206    2        2.755422720000       6.586262550000      22.269088000000
       207    2       10.431604032000      11.466202860000      18.042912000000
       208    2        4.271097792000       7.537225770000      18.420096000000
       209    2        3.474501504000       1.032100515000      18.690112000000
       210    2        2.144605632000      11.682196515000      14.910816000000
       211    2        1.895933376000       8.692936605000      17.204384000000
       212    2        0.880219584000       4.614889410000      18.052192000000
       213    2        2.347229568000       8.065345095000      14.760000000000
       214    2       10.065494400000      10.441203210000      20.303584000000
       215    2        0.132379008000       6.956781120000      23.423104000000
       216    2       10.852303296000       7.845951195000      17.932288000000
       217    2       10.222194624000       4.757831865000      15.010912000000
       218    2        8.064029376000       3.666052845000      20.855392000000
       219    2       10.110296640000       7.924925790000      20.914912000000
       220    2        5.940958272000       6.367205070000      23.134400000000
       221    2        4.847239872000       9.903592035000      15.130592000000
       222    2       10.600799040000       4.723072470000      23.982112000000
       223    2        1.232554368000      10.801701270000      21.255104000000
       224    2       10.254604032000       2.107250775000      20.589216000000
       225    3        2.704152192000       2.548093140000      14.271008000000
       226    3        0.037201152000       6.522438870000      12.886400000000
       227    3        0.903838464000       5.215855680000      17.215712000000
       228    3        1.774735104000       4.167943425000      18.079584000000
       229    3        4.056749376000       9.144207990000      20.932704000000
       230    3        3.567255168000       8.213045490000      19.905984000000
       231    3        7.814077056000       6.568204005000      15.955712000000
       232    3        6.240379968000       6.361966530000      15.449984000000
       233    3        5.844885504000       1.809675270000      19.547712000000
       234    3        5.798044224000       1.496624445000      21.057984000000
       235    3        6.820690752000       0.117662895000      18.265216000000
       236    3        2.021776128000       4.834595700000      15.662688000000
       237    3        6.360921216000       2.513009340000      14.210400000000
       238    3        6.957057216000       2.450675520000      15.645312000000
       239    3        1.926813504000      10.392999030000      17.595808000000
       240    3        1.732141824000      11.604904020000      16.652896000000
       241    3        9.818895168000       6.864758235000      17.096512000000
       242    3        9.501020160000       5.528329785000      16.245888000000
       243    3        0.346976640000       1.627636005000      24.552896000000
       244    3        0.471845184000       2.378465370000      25.844096000000
       245    3        7.371514752000       9.863594100000      18.039488000000
       246    3        6.341527680000      10.221797295000      20.058400000000
       247    3        0.905843520000       5.509117800000      19.390912000000
       248    3        0.059200128000       6.518774295000      20.353600000000
       249    3        5.594196864000      11.233904850000      21.782400000000
       250    3        4.465724160000       0.315105390000      22.163904000000
       251    3        7.781644992000       1.619561925000      17.326400000000
       252    3        9.785081088000       2.456490780000      17.382304000000
       253    3        2.894655168000       1.689477210000      22.328512000000
       254    3        2.354592768000       0.207282780000      21.551712000000
       255    3        3.947139648000       3.989424555000      22.419200000000
       256    3        5.290334592000       3.632410845000      21.714208000000
       257    3       11.108905152000       3.404498310000      18.022400000000
       258    3       10.403499264000       2.249159940000      19.025696000000
       259    3        9.744458880000       0.754602075000      21.737696000000
       260    3        8.921264448000       0.599908950000      23.113600000000
       261    3        1.273539072000       2.829075930000      16.012288000000
       262    3        2.810533440000       3.072824235000      16.537600000000
       263    3        7.516988928000      11.606405895000      14.229088000000
       264    3       11.209996224000       5.095573515000      14.993696000000
       265    3       10.328496576000       2.663629380000      15.023808000000
       266    3       11.197104960000       2.030607090000      14.077600000000
       267    3        7.007863296000       4.091359815000      13.062688000000
       268    3        8.315839488000      10.608103575000      16.016288000000
       269    3       10.921902528000      11.890104075000      23.231712000000
       270    3        1.065500352000      11.707403985000      23.896608000000
       271    3        8.007094848000       5.088628845000      19.766688000000
       272    3        8.327994432000       6.001360335000      18.362400000000
       273    3        3.407938176000       2.566139670000      18.388704000000
       274    3        4.055956416000       4.137245100000      18.479296000000
       275    3        6.021160512000       5.175028710000      19.036512000000
       276    3        4.875729792000       4.928853375000      20.164992000000
       277    3        8.857306560000       4.462767495000      23.749312000000
       278    3        7.466330112000       5.216312250000      23.423488000000
       279    3        8.249944512000      10.195304220000      19.331488000000
       280    3        8.746779264000       1.265828310000      16.163392000000
       281    3       11.024704128000       9.590156730000      14.314784000000
       282    3        0.202454016000      10.713703410000      15.281504000000
       283    3        0.403197504000       4.708522305000      21.223488000000
       284    3        0.038096064000       4.187239515000      22.661408000000
       285    3        7.211540736000       8.300454615000      16.622496000000
       286    3        9.425405760000      10.991394090000      14.987104000000
       287    3        4.766425920000      10.860394545000      15.446592000000
       288    3        5.817324480000       1.036233675000      17.417696000000
       289    3        7.443945984000       6.986614365000      20.409696000000
       290    3        6.915857280000       7.150583070000      21.949216000000
       291    3        1.927799040000       6.369523965000      15.371104000000
       292    3        2.830708608000       7.369135920000      21.674688000000
       293    3        6.504854784000       9.119625300000      21.245984000000
       294    3        0.049140864000      11.787796350000      17.988000000000
       295    3        2.796701952000       0.538500285000      18.144288000000
       296    3        3.194076864000       1.028904525000      19.679296000000
       297    3        1.476944640000      11.952041400000      14.183808000000
       298    3        2.572294272000      10.909800225000      14.386688000000
       299    3        0.348596544000       8.302593285000      17.668512000000
       300    3       10.535504448000       7.974956250000      18.915616000000
       301    3        1.726579776000       8.189375940000      13.895296000000
       302    3        3.231957696000       8.304035085000      14.468288000000
       303    3       10.224403584000      10.871604540000      19.313888000000
       304    3        9.574799424000      10.994602095000      20.972096000000
       305    3       10.959103680000       7.419058245000      22.745408000000
       306    3        1.118390784000       7.056974205000      23.183296000000
       307    3        9.194167296000       7.648232355000      21.026208000000
       308    3        2.407607808000       5.988384135000      21.585888000000
       309    3        5.439943488000       9.992070495000      14.320192000000
       310    3        6.342649152000       9.569635110000      16.090688000000
       311    3       10.096804992000       8.946765495000      20.714912000000
       312    3       11.021894784000       3.990614040000      24.469984000000
       313    3       11.118703872000       5.640489810000      23.938688000000
       314    3        1.633905408000       9.945584460000      20.912896000000
       315    3       11.050894464000       2.345472180000      21.082304000000
       316    3        9.618004416000       2.845944990000      20.749504000000
       317    3        7.034688000000       7.765474725000      14.410112000000
       318    3        4.222919808000      11.602296765000      12.955712000000
       319    3        3.631326336000       0.438138990000      15.515904000000
       320    3        8.075923776000       3.863843775000      21.803104000000
       321    3        7.278681792000       3.018936960000      20.748288000000
       322    3        4.857457728000       7.865992215000      17.684896000000
       323    3        4.527133248000       6.604104825000      18.644704000000
       324    3        5.071387008000       1.328726835000      15.428288000000
       325    3        1.942525440000       8.505226260000      16.257792000000
       326    3        9.907004352000       4.716884745000      14.077312000000
       327    3        2.643490752000       8.093316015000      17.552704000000
       328    3        7.892817984000       2.269609470000      23.652288000000
       329    3        6.826921152000       0.934454610000      23.377504000000
       330    3        4.550763456000       5.463520875000      14.539392000000
       331    3        5.526172224000       4.397297760000      15.038496000000
       332    3        0.286337856000      10.818197865000      21.132512000000
       333    3        1.811437824000       3.402660015000      22.352384000000
       334    3        2.460452928000       3.370543920000      23.793184000000
       335    3       10.293798912000      10.722702645000      17.415808000000
       336    3        5.124447360000       6.866392275000      23.409184000000
       337    3        5.516668032000       5.609779470000      22.706592000000
       338    4        8.117191680000       8.923035870000      26.985888000000
