LAMMPS (2 Aug 2023)
OMP_NUM_THREADS environment is not set. Defaulting to 1 thread. (src/comm.cpp:98)
  using 1 OpenMP thread(s) per MPI task
Loaded 1 plugins from /work/home/baoergen22b/apprepo/deepmd/v2.2.9-dtk23.10/app/lib/deepmd_lmp
package gpu 4
# system
units        metal
dimension    3
atom_style   atomic
boundary     p p f

# 设置原子映射
atom_modify map array

# initial stucture
read_data POSCAR.lmp
Reading data file ...
  orthogonal box = (0 0 0) to (11.328 12.015 32)
  1 by 1 by 4 MPI processor grid
  reading atoms ...
  339 atoms
  read_data CPU = 0.026 seconds
mass      1 55.845
mass      2 15.999
mass      3 1.008
mass      4  35.450

# potential
pair_style deepmd graph-compress.pb
Summary of lammps deepmd module ...
  >>> Info of deepmd-kit:
  installed to:       /work/home/wys974137909/shangcheng/deepmd-kit/20240715/deepmd-kit_v2.2.9/install
  source:             v2.2.9
  source branch:      HEAD
  source commit:      be43748
  source commit at:   2024-02-04 13:44:12 +0800
  support model ver.: 1.1 
  build variant:      rocm
  build with tf inc:  /work/home/wys974137909/shangcheng/miniconda3/envs/deepmd-kit-v2.2.9/lib/python3.8/site-packages/tensorflow/include;/work/home/wys974137909/shangcheng/miniconda3/envs/deepmd-kit-v2.2.9/lib/python3.8/site-packages/tensorflow/include
  build with tf lib:  /work/home/wys974137909/shangcheng/miniconda3/envs/deepmd-kit-v2.2.9/lib/python3.8/site-packages/tensorflow/lib/libtensorflow_cc.so
  set tf intra_op_parallelism_threads: 0
  set tf inter_op_parallelism_threads: 0
  >>> Info of lammps module:
  use deepmd-kit at:  /work/home/wys974137909/shangcheng/deepmd-kit/20240715/deepmd-kit_v2.2.9/install
  source:             v2.2.9
  source branch:      HEAD
  source commit:      be43748
  source commit at:   2024-02-04 13:44:12 +0800
  build float prec:   double
  build with tf inc:  /work/home/wys974137909/shangcheng/miniconda3/envs/deepmd-kit-v2.2.9/lib/python3.8/site-packages/tensorflow/include;/work/home/wys974137909/shangcheng/miniconda3/envs/deepmd-kit-v2.2.9/lib/python3.8/site-packages/tensorflow/include
  build with tf lib:  /work/home/wys974137909/shangcheng/miniconda3/envs/deepmd-kit-v2.2.9/lib/python3.8/site-packages/tensorflow/lib/libtensorflow_cc.so
pair_coeff * *

# 固定原子受力、速度为 0
group fixed id 1:168
168 atoms in group fixed
group mobile subtract all fixed
171 atoms in group mobile
fix freeze_fixed fixed setforce 0.0 0.0 0.0
velocity fixed set 0 0 0

# 在z=27处添加硬性反射墙
fix wall1 mobile wall/reflect zhi 26

# 计算mobile组的温度
compute mTemp mobile temp
thermo 50
thermo_style custom step temp c_mTemp pe ke etotal press
velocity mobile  create 298.15 12345 mom yes rot yes

#fix ensemble mobile  nvt temp 298.15 298.15 1
#timestep 0.0005
#run 15000
#unfix ensemble        # 结束预平衡的NVT

fix ensemble mobile  nvt temp 298.15 298.15 1
fix meta  all colvars pmf.in tstat ensemble
timestep 0.0005
dump trace all custom 10 md.lammpstrj id type x y z
run 200000

CITE-CITE-CITE-CITE-CITE-CITE-CITE-CITE-CITE-CITE-CITE-CITE-CITE

Your simulation uses code contributions which should be cited:

- GPU package (short-range, long-range and three-body potentials): doi:10.1016/j.cpc.2010.12.021, doi:10.1016/j.cpc.2011.10.012, doi:10.1016/j.cpc.2013.08.002, doi:10.1016/j.commatsci.2014.10.068, doi:10.1016/j.cpc.2016.10.020, doi:10.3233/APC200086

@Article{Brown11,
 author = {W. M. Brown and P. Wang and S. J. Plimpton and A. N. Tharrington},
 title = {Implementing Molecular Dynamics on Hybrid High Performance Computers---Short Range Forces},
 journal = {Comput.\ Phys.\ Commun.},
 year =    2011,
 volume =  182,
 pages =   {898--911},
 doi =     {10.1016/j.cpc.2010.12.021}
}

@Article{Brown12,
 author = {W. M. Brown and A. Kohlmeyer and S. J. Plimpton and A. N. Tharrington},
 title = {Implementing Molecular Dynamics on Hybrid High Performance Computers - Particle-Particle Particle-Mesh},
 journal = {Comput.\ Phys.\ Commun.},
 year =    2012,
 volume =  183,
 doi =     {10.1016/j.cpc.2011.10.012},
 pages =   {449--459}
}

@Article{Brown13,
 author = {W. M. Brown and Y. Masako},
 title = {Implementing Molecular Dynamics on Hybrid High Performance Computers---Three-Body Potentials},
 journal = {Comput.\ Phys.\ Commun.},
 year =    2013,
 volume =  184,
 pages =   {2785--2793},
 doi =     {10.1016/j.cpc.2013.08.002},
}

@Article{Trung15,
 author = {T. D. Nguyen and S. J. Plimpton},
 title = {Accelerating Dissipative Particle Dynamics Simulations for Soft Matter Systems},
 journal = {Comput.\ Mater.\ Sci.},
 year =    2015,
 doi =     {10.1016/j.commatsci.2014.10.068},
 volume =  100,
 pages =   {173--180}
}

@Article{Trung17,
 author = {T. D. Nguyen},
 title = {{GPU}-Accelerated {T}ersoff Potentials for Massively Parallel
    Molecular Dynamics Simulations},
 journal = {Comput.\ Phys.\ Commun.},
 year =    2017,
 doi =     {10.1016/j.cpc.2016.10.020},
 volume =  212,
 pages =   {113--122}
}

@inproceedings{Nikolskiy19,
 author = {V. Nikolskiy and V. Stegailov},
 title = {{GPU} Acceleration of Four-Site Water Models in {LAMMPS}},
 booktitle = {Proceedings of the International Conference on Parallel
    Computing (ParCo 2019), Prague, Czech Republic},
 doi =     {10.3233/APC200086},
 year =    2019
}

- USER-DEEPMD package:

@article{Wang_ComputPhysCommun_2018_v228_p178,
  author = {Wang, Han and Zhang, Linfeng and Han, Jiequn and E, Weinan},
  doi = {10.1016/j.cpc.2018.03.016},
  url = {https://doi.org/10.1016/j.cpc.2018.03.016},
  year = 2018,
  month = {jul},
  publisher = {Elsevier {BV}},
  volume = 228,
  journal = {Comput. Phys. Commun.},
  title = {{DeePMD-kit: A deep learning package for many-body potential energy representation and molecular dynamics}},
  pages = {178--184}
}
@misc{Zeng_JChemPhys_2023_v159_p054801,
  title  = {{DeePMD-kit v2: A software package for deep potential models}},
  author =   {Jinzhe Zeng and Duo Zhang and Denghui Lu and Pinghui Mo and Zeyu Li
         and Yixiao Chen and Mari{\'a}n Rynik and Li'ang Huang and Ziyao Li and 
         Shaochen Shi and Yingze Wang and Haotian Ye and Ping Tuo and Jiabin
         Yang and Ye Ding and Yifan Li and Davide Tisi and Qiyu Zeng and Han 
         Bao and Yu Xia and Jiameng Huang and Koki Muraoka and Yibo Wang and 
         Junhan Chang and Fengbo Yuan and Sigbj{\o}rn L{\o}land Bore and Chun
         Cai and Yinnian Lin and Bo Wang and Jiayan Xu and Jia-Xin Zhu and 
         Chenxing Luo and Yuzhi Zhang and Rhys E A Goodall and Wenshuo Liang
         and Anurag Kumar Singh and Sikai Yao and Jingchao Zhang and Renata
         Wentzcovitch and Jiequn Han and Jie Liu and Weile Jia and Darrin M
         York and Weinan E and Roberto Car and Linfeng Zhang and Han Wang},
  journal =  {J. Chem. Phys.},
  volume =   159,
  issue =    5,  
  year =    2023,
  pages  =   054801,
  doi =      {10.1063/5.0155600},
}

CITE-CITE-CITE-CITE-CITE-CITE-CITE-CITE-CITE-CITE-CITE-CITE-CITE

Generated 0 of 6 mixed pair_coeff terms from geometric mixing rule
Neighbor list info ...
  update: every = 1 steps, delay = 0 steps, check = yes
  max neighbors/atom: 2000, page size: 100000
  master list distance cutoff = 8
  ghost atom cutoff = 8
  binsize = 4, bins = 3 4 8
  1 neighbor lists, perpetual/occasional/extra = 1 0 0
  (1) pair deepmd, perpetual
      attributes: full, newton on
      pair build: full/bin/atomonly
      stencil: full/bin/3d
      bin: standard
colvars: Creating proxy instance
colvars: ----------------------------------------------------------------------
colvars: Initializing the collective variables module, version 2023-05-01.
colvars: Please cite Fiorin et al, Mol Phys 2013:
colvars:   https://doi.org/10.1080/00268976.2013.813594
colvars: as well as all other papers listed below for individual features used.
colvars: This version was built with the C++11 standard or higher.
colvars: Using LAMMPS interface, version "2023-04-12".
colvars: ----------------------------------------------------------------------
colvars: Reading new configuration from file "pmf.in":
colvars: # units = "" [default]
colvars: # smp = on [default]
colvars: # colvarsTrajFrequency = 100 [default]
colvars: # colvarsRestartFrequency = 0 [default]
colvars: # scriptedColvarForces = off [default]
colvars: # scriptingAfterBiases = off [default]
colvars: ----------------------------------------------------------------------
colvars:   Initializing a new collective variable.
colvars:   # name = "d"
colvars:   Initializing a new "distance" component.
colvars:     # name = "" [default]
colvars:     # componentCoeff = 1 [default]
colvars:     # componentExp = 1 [default]
colvars:     # period = 0 [default]
colvars:     # wrapAround = 0 [default]
colvars:     # forceNoPBC = off [default]
colvars:     # scalable = on [default]
colvars:       Initializing atom group "group1".
colvars:       # name = "" [default]
colvars:       # centerToOrigin = off [default]
colvars:       # centerToReference = off [default]
colvars:       # rotateToReference = off [default]
colvars:       # atomsOfGroup = "" [default]
colvars:       # indexGroup = "" [default]
colvars:       # psfSegID =  [default]
colvars:       # atomsFile = "" [default]
colvars:       # dummyAtom = ( 0 , 0 , 0 ) [default]
colvars:       # enableFitGradients = on [default]
colvars:       # printAtomIDs = off [default]
colvars:       Atom group "group1" defined with 1 atoms requested.
colvars:       Initializing atom group "group2".
colvars:       # name = "" [default]
colvars:       # centerToOrigin = off [default]
colvars:       # centerToReference = off [default]
colvars:       # rotateToReference = off [default]
colvars:       # atomsOfGroup = "" [default]
colvars:       # indexGroup = "" [default]
colvars:       # psfSegID =  [default]
colvars:       # atomsFile = "" [default]
colvars:       # dummyAtom = ( 0 , 0 , 0 ) [default]
colvars:       # enableFitGradients = on [default]
colvars:       # printAtomIDs = off [default]
colvars:       Atom group "group2" defined with 1 atoms requested.
colvars:     # oneSiteSystemForce = off [default]
colvars:     # oneSiteTotalForce = off [default]
colvars:   All components initialized.
colvars:   # timeStepFactor = 1 [default]
colvars:   # width = 0.02
colvars:   # lowerBoundary = 0.3
colvars:   # upperBoundary = 4
colvars:   # hardLowerBoundary = on
colvars:   # hardUpperBoundary = on
colvars:   # expandBoundaries = off [default]
colvars:   # extendedLagrangian = off [default]
colvars:   # outputValue = on [default]
colvars:   # outputVelocity = off [default]
colvars:   # outputTotalForce = on
colvars:   # outputAppliedForce = on
colvars:   # subtractAppliedForce = off [default]
colvars:   # runAve = off [default]
colvars:   # corrFunc = off [default]
colvars: ----------------------------------------------------------------------
colvars: Collective variables initialized, 1 in total.
colvars: ----------------------------------------------------------------------
colvars:   Initializing a new "metadynamics" instance.
colvars:   # name = "metadynamics1" [default]
colvars:   # colvars = { d }
colvars:   # stepZeroData = off [default]
colvars:   # outputEnergy = off [default]
colvars:   # outputFreq = 0 [default]
colvars:   # timeStepFactor = 1 [default]
colvars:   # writeTISamples = on
colvars:   # writeTIPMF = on
colvars:   # hillWeight = 0.08
colvars:   # newHillFrequency = 200
colvars:   # gaussianSigmas =  [default]
colvars:   # hillWidth = 1
colvars:   Half-widths of the Gaussian hills (sigma's):
colvars:   d: 0.01
colvars:   # multipleReplicas = off [default]
colvars:   # useGrids = on [default]
colvars:   # gridsUpdateFrequency = 200 [default]
colvars:   # rebinGrids = off [default]
colvars:   # writeFreeEnergyFile = on [default]
colvars:   # keepHills = off [default]
colvars:   # keepFreeEnergyFiles = off [default]
colvars:   # writeHillsTrajectory = off [default]
colvars:   # wellTempered = off [default]
colvars:   # biasTemperature = 800
colvars:   # ebMeta = off [default]
colvars: ----------------------------------------------------------------------
colvars: Collective variables biases initialized, 1 in total.
colvars: ----------------------------------------------------------------------
colvars: Collective variables module (re)initialized.
colvars: ----------------------------------------------------------------------
colvars: Re-initialized atom group for variable "d":0/0. 1 atoms: total mass = 1.008, total charge = 4.66309e-310.
colvars: Re-initialized atom group for variable "d":0/1. 1 atoms: total mass = 1.008, total charge = 5.83367e-310.
colvars: The restart output state file will be "rest.colvars.state".
colvars: The final output state file will be "out.colvars.state".
Per MPI rank memory allocation (min/avg/max) = 3.124 | 3.153 | 3.169 Mbytes
   Step          Temp         c_mTemp         PotEng         KinEng         TotEng         Press     
         0   149.9571       298.15        -2246.4242      6.5516151     -2239.8725     -14917.607    
        50   170.26374      338.52438     -2243.7831      7.4388107     -2236.3443     -15973.328    
       100   180.27753      358.43415     -2244.2152      7.8763124     -2236.3389     -18881.711    
       150   191.86534      381.47344     -2244.7719      8.3825832     -2236.3893     -14363.81     
       200   196.13974      389.97196     -2244.8965      8.5693314     -2236.3271     -16129.647    
       250   166.13421      330.31391     -2243.3374      7.258392      -2236.079      -17146.324    
       300   210.90067      419.32015     -2245.341       9.2142352     -2236.1267     -14038.199    
       350   211.11049      419.73732     -2245.3803      9.2234022     -2236.1569     -14821.223    
       400   196.78782      391.26049     -2244.735       8.5976459     -2236.1373     -15561.901    
       450   205.20464      407.99511     -2244.7141      8.9653762     -2235.7487     -15247.209    
       500   198.82539      395.31166     -2244.471       8.6866673     -2235.7843     -16845.373    
       550   206.80746      411.1819      -2244.8629      9.0354035     -2235.8275     -16592.58     
       600   228.66211      454.63408     -2245.8571      9.9902315     -2235.8669     -14943.488    
       650   202.94724      403.50686     -2244.7802      8.8667503     -2235.9134     -11857.25     
       700   215.73535      428.93264     -2245.2793      9.4254621     -2235.8538     -13560.149    
       750   208.69773      414.94019     -2245.0017      9.1179889     -2235.8837     -14220.508    
       800   194.17156      386.05875     -2244.457       8.4833416     -2235.9737     -15933.917    
       850   208.55537      414.65714     -2245.0897      9.1117691     -2235.9779     -16070.57     
       900   193.99662      385.71093     -2244.5606      8.4756987     -2236.0849     -12797.272    
       950   214.87209      427.21627     -2245.2371      9.3877463     -2235.8494     -15572.345    
      1000   186.84433      371.49049     -2244.0902      8.1632155     -2235.927      -12922.303    
      1050   201.97344      401.57071     -2244.4202      8.824205      -2235.596      -17392.638    
      1100   201.79497      401.21588     -2243.3955      8.8164079     -2234.5791     -10829.398    
      1150   211.50972      420.5311      -2243.8856      9.2408448     -2234.6448     -14037.038    
      1200   243.17798      483.49505     -2244.8868      10.624429     -2234.2624     -16275.233    
      1250   209.4324       416.40089     -2243.2209      9.1500867     -2234.0709     -13993.172    
      1300   206.06159      409.69892     -2243.3121      9.0028161     -2234.3093     -16310.596    
      1350   206.25735      410.08815     -2243.4234      9.0113691     -2234.412      -13776.47     
      1400   215.55275      428.56959     -2243.5109      9.4174846     -2234.0934     -15562.182    
      1450   231.49413      460.26481     -2243.9287      10.113962     -2233.8147     -16104.458    
      1500   244.51107      486.14553     -2243.8068      10.682671     -2233.1241     -13156.182    
      1550   214.65745      426.78951     -2242.5543      9.3783687     -2233.1759     -14843.305    
      1600   224.08209      445.52791     -2242.8592      9.7901304     -2233.069      -17438.879    
      1650   202.04337      401.70976     -2241.821       8.8272606     -2232.9938     -15673.045    
      1700   199.6198       396.89112     -2241.8109      8.7213747     -2233.0895     -13022.056    
      1750   216.34011      430.13503     -2242.6027      9.4518839     -2233.1508     -15487.317    
      1800   222.97196      443.32071     -2242.9497      9.7416289     -2233.208      -13020.456    
      1850   206.61971      410.8086      -2242.0976      9.0272005     -2233.0704     -16697.109    
      1900   217.51879      432.47854     -2242.4671      9.5033806     -2232.9637     -16228.819    
      1950   218.72995      434.8866      -2241.931       9.5562959     -2232.3747     -12420.775    
      2000   227.00343      451.33624     -2241.8471      9.9177639     -2231.9293     -16890.29     
      2050   234.80627      466.85011     -2242.2427      10.258669     -2231.984      -13175.389    
      2100   244.20987      485.54667     -2242.7165      10.669512     -2232.047      -12907.917    
      2150   236.97486      471.16178     -2242.4865      10.353415     -2232.1331     -15540.133    
      2200   214.86428      427.20075     -2241.5857      9.3874053     -2232.1983     -13608.141    
      2250   205.12571      407.83817     -2241.2275      8.9619276     -2232.2656     -13338.032    
      2300   214.76859      427.0105      -2241.7155      9.3832246     -2232.3322     -16767.165    
      2350   223.99592      445.35659     -2242.1991      9.7863657     -2232.4127     -14139.801    
      2400   215.57141      428.60668     -2241.8961      9.4182996     -2232.4778     -14905.884    
      2450   222.89452      443.16674     -2242.2832      9.7382456     -2232.5449     -12689.248    
      2500   190.38358      378.52735     -2240.9147      8.3178451     -2232.5968     -13692.689    
      2550   214.62491      426.72481     -2242.0638      9.3769469     -2232.6868     -15139.252    
      2600   204.20801      406.01358     -2241.6898      8.9218337     -2232.768      -11263.134    
      2650   216.31398      430.08308     -2242.2856      9.4507422     -2232.8349     -14637.72     
      2700   229.62774      456.55398     -2242.9546      10.03242      -2232.9222     -12498.491    
      2750   193.73197      385.18473     -2241.4561      8.4641359     -2232.992      -14443.69     
      2800   216.08797      429.63372     -2242.5187      9.440868      -2233.0778     -17608.183    
      2850   213.30336      424.09727     -2242.4781      9.3192087     -2233.1589     -13694.704    
      2900   208.12872      413.80888     -2242.3242      9.0931292     -2233.231      -13860.124    
      2950   213.5628       424.6131      -2242.6481      9.3305436     -2233.3176     -12855.87     
      3000   200.63627      398.91211     -2242.1387      8.7657843     -2233.3729     -15820.098    
      3050   207.57491      412.70777     -2242.5315      9.0689332     -2233.4625     -14506.811    
      3100   195.37175      388.44501     -2242.0604      8.5357778     -2233.5246     -17401.611    
      3150   201.46628      400.56236     -2242.4115      8.8020473     -2233.6095     -12496.05     
      3200   206.36237      410.29694     -2242.6998      9.0159571     -2233.6839     -14687.928    
      3250   217.78518      433.00818     -2243.2915      9.5150191     -2233.7764     -12966.979    
      3300   217.3445       432.13201     -2243.3604      9.4957658     -2233.8646     -14465.19     
      3350   216.67666      430.80418     -2243.4286      9.4665878     -2233.962      -15123.255    
      3400   205.24405      408.07347     -2243.0095      8.9670981     -2234.0424     -14257.445    
      3450   204.88075      407.35113     -2243.0712      8.9512253     -2234.12       -14598.142    
      3500   212.95069      423.39609     -2243.5027      9.3038007     -2234.1989     -14038.698    
      3550   233.71344      464.67732     -2244.4924      10.210924     -2234.2815     -12684.006    
      3600   200.74835      399.13496     -2243.1316      8.7706814     -2234.3609     -13583.56     
      3650   204.1925       405.98273     -2243.3824      8.9211557     -2234.4612     -15575.729    
      3700   212.33139      422.16476     -2243.8157      9.2767433     -2234.5389     -17151.459    
      3750   208.31584      414.1809      -2243.732       9.1013042     -2234.6306     -15259.394    
      3800   194.50993      386.73151     -2243.2002      8.4981251     -2234.7021     -13591.064    
      3850   192.09156      381.92321     -2243.176       8.3924665     -2234.7835     -16744.786    
      3900   193.02238      383.77391     -2243.2874      8.4331341     -2234.8543     -13612.353    
      3950   205.84303      409.26437     -2243.9268      8.9932673     -2234.9336     -13751.728    
      4000   209.65322      416.83994     -2244.1644      9.1597345     -2235.0047     -14465.398    
      4050   209.28176      416.10138     -2244.2318      9.1435052     -2235.0883     -15473.023    
      4100   193.25076      384.22799     -2243.6064      8.4431122     -2235.1633     -12182.618    
      4150   195.2268       388.15681     -2243.7676      8.529445      -2235.2382     -14542.01     
      4200   203.45182      404.5101      -2244.199       8.8887958     -2235.3102     -16052.64     
      4250   182.40463      362.66332     -2243.3573      7.9692453     -2235.3881     -15312.074    
      4300   189.31099      376.3948      -2243.7348      8.2709839     -2235.4638     -16355.057    
      4350   210.35727      418.23974     -2244.7409      9.190494      -2235.5504     -16959.091    
      4400   205.937        409.4512      -2244.6169      8.9973727     -2235.6195     -16700.834    
      4450   204.27809      406.15292     -2244.6158      8.9248955     -2235.6909     -15551.559    
      4500   191.64551      381.03637     -2244.143       8.3729789     -2235.77       -15133.863    
      4550   199.4444       396.5424      -2244.5603      8.7137119     -2235.8466     -20003.54     
      4600   190.02459      377.81359     -2244.2295      8.3021608     -2235.9274     -11855.808    
      4650   198.03308      393.73635     -2244.6463      8.652051      -2235.9942     -17295.218    
      4700   181.01044      359.89134     -2243.9686      7.9083332     -2236.0603     -16015.936    
      4750   199.91882      397.48565     -2244.8867      8.7344389     -2236.1522     -12399.094    
      4800   190.08789      377.93946     -2244.5158      8.3049266     -2236.2109     -15905.405    
      4850   197.31697      392.31257     -2244.904       8.6207646     -2236.2832     -17534.088    
      4900   179.40772      356.70475     -2244.195       7.8383104     -2236.3566     -13158.705    
      4950   168.1503       334.32236     -2243.7693      7.3464745     -2236.4229     -12671.826    
      5000   190.30012      378.36141     -2244.8069      8.3141986     -2236.4927     -15591.594    
      5050   171.83221      341.64286     -2244.0652      7.507337      -2236.5579     -13245.776    
      5100   195.50695      388.71381     -2245.1768      8.5416846     -2236.6351     -11969.633    
      5150   200.85718      399.35133     -2245.4787      8.7754358     -2236.7033     -13994.442    
      5200   176.34056      350.60653     -2244.4683      7.7043066     -2236.764      -12665.705    
      5250   180.62011      359.11528     -2244.7205      7.8912799     -2236.8292     -15509.435    
      5300   175.50412      348.94348     -2244.563       7.6677624     -2236.8952     -14479.433    
      5350   186.4611       370.72853     -2245.1033      8.1464721     -2236.9569     -15418.108    
      5400   172.83183      343.63035     -2244.5705      7.5510106     -2237.0195     -14982.437    
      5450   173.11434      344.19204     -2244.6537      7.5633532     -2237.0904     -15140.57     
      5500   183.67618      365.19147     -2245.1907      8.0247994     -2237.1659     -14392.172    
      5550   181.83807      361.53687     -2245.1686      7.9444923     -2237.2241     -12700.976    
      5600   182.01402      361.8867      -2245.246       7.9521795     -2237.2939     -17273.226    
      5650   191.18721      380.12516     -2245.7174      8.3529556     -2237.3644     -15288.947    
      5700   168.06381      334.15039     -2244.7623      7.3426957     -2237.4196     -18488.692    
      5750   172.77089      343.50918     -2245.0325      7.548348      -2237.4842     -15711.822    
      5800   174.11431      346.18021     -2245.1548      7.6070417     -2237.5477     -14466.463    
      5850   177.78712      353.48262     -2245.3787      7.7675065     -2237.6112     -13147.617    
      5900   171.51529      341.01276     -2245.1709      7.493491      -2237.6774     -12023.787    
      5950   164.16844      326.40549     -2244.9003      7.1725075     -2237.7277     -17704.568    
      6000   162.20969      322.51104     -2244.8749      7.0869299     -2237.7879     -15614.698    
      6050   169.8433       337.68844     -2245.257       7.4204415     -2237.8366     -13497.915    
      6100   170.27364      338.54406     -2245.3357      7.4392433     -2237.8964     -15591.036    
      6150   170.7652       339.5214      -2245.404       7.4607194     -2237.9432     -13738.056    
      6200   176.79544      351.51094     -2245.7278      7.7241803     -2238.0036     -15513.639    
      6250   186.34823      370.50413     -2246.2066      8.1415409     -2238.065      -15119.219    
      6300   174.31467      346.57858     -2245.7397      7.6157957     -2238.1239     -16074.407    
      6350   180.30884      358.4964      -2246.0607      7.8776804     -2238.183      -13974.554    
      6400   179.93152      357.74621     -2246.1052      7.8611956     -2238.244      -11213.148    
      6450   167.13146      332.29666     -2245.5978      7.3019616     -2238.2959     -15388.281    
      6500   177.37612      352.66546     -2246.1152      7.7495501     -2238.3656     -13736.044    
      6550   175.73536      349.40325     -2246.0925      7.6778654     -2238.4146     -10253.406    
      6600   166.71068      331.46006     -2245.7543      7.2835778     -2238.4708     -13959.566    
      6650   174.83073      347.60462     -2246.1679      7.6383421     -2238.5296     -11687.267    
      6700   187.22611      372.24955     -2246.7633      8.1798953     -2238.5834     -14479.913    
      6750   166.0808       330.20771     -2245.8886      7.2560583     -2238.6325     -11103.877    
      6800   151.72046      301.65598     -2245.3173      6.6286563     -2238.6887     -13300.055    
      6850   164.82433      327.70955     -2245.9373      7.2011632     -2238.7362     -13893.803    
      6900   175.7366       349.40571     -2246.4751      7.6779196     -2238.7971     -15036.977    
      6950   157.39769      312.94364     -2245.7265      6.8766938     -2238.8498     -16653.675    
      7000   163.73509      325.54388     -2246.0553      7.1535743     -2238.9018     -14997.229    
      7050   160.47858      319.06918     -2245.971       7.0112977     -2238.9597     -16392.69     
      7100   170.41827      338.83161     -2246.455       7.4455619     -2239.0094     -16903.03     
      7150   147.65501      293.5729      -2245.4984      6.4510368     -2239.0474     -16363.672    
      7200   162.74809      323.5815      -2246.2041      7.1104525     -2239.0936     -13540.161    
      7250   159.11737      316.36277     -2246.09        6.9518267     -2239.1382     -17624.032    
      7300   161.34921      320.80019     -2246.2334      7.0493355     -2239.184      -14568.936    
      7350   155.72168      309.61135     -2246.032       6.8034693     -2239.2286     -17510.342    
      7400   167.18497      332.40307     -2246.578       7.3042997     -2239.2737     -14266.656    
      7450   170.53716      339.06801     -2246.7723      7.4507566     -2239.3216     -17305.745    
      7500   185.19025      368.20179     -2247.4695      8.0909488     -2239.3785     -14502.435    
      7550   168.78294      335.58019     -2246.7992      7.3741146     -2239.4251     -14263.226    
      7600   159.35869      316.84258     -2246.4396      6.96237       -2239.4772     -13468.948    
      7650   152.43881      303.08422     -2246.1764      6.6600408     -2239.5164     -12846.171    
      7700   171.16007      340.3065      -2247.0471      7.4779715     -2239.5691     -16726.607    
      7750   173.11021      344.18383     -2247.1801      7.5631728     -2239.6169     -17801.115    
      7800   167.42171      332.87376     -2246.98        7.3146428     -2239.6654     -16466.868    
      7850   162.79481      323.67438     -2246.8259      7.1124936     -2239.7134     -17400.695    
      7900   181.39437      360.65469     -2247.6816      7.9251072     -2239.7565     -16544.716    
      7950   167.94414      333.91248     -2247.1511      7.3374677     -2239.8137     -15919.739    
      8000   150.96216      300.1483      -2246.4426      6.5955262     -2239.8471     -16803.161    
      8050   157.71199      313.56855     -2246.7907      6.8904257     -2239.9003     -12119.38     
      8100   153.52473      305.24328     -2246.6512      6.7074844     -2239.9437     -18602.709    
      8150   172.84736      343.66122     -2247.5454      7.5516889     -2239.9937     -17144.23     
      8200   169.33732      336.68243     -2247.4384      7.3983354     -2240.0401     -17283.821    
      8250   175.73823      349.40896     -2247.7658      7.677991      -2240.0878     -17940.92     
      8300   153.51169      305.21737     -2246.838       6.706915      -2240.1311     -15878.146    
      8350   175.02465      347.99019     -2247.8352      7.6468147     -2240.1883     -17890.497    
      8400   178.42934      354.7595      -2248.0357      7.7955651     -2240.2401     -15726.658    
      8450   173.64535      345.24782     -2247.8762      7.5865531     -2240.2896     -17315.853    
      8500   170.32251      338.64122     -2247.7815      7.4413783     -2240.3402     -19169.596    
      8550   188.24634      374.27802     -2248.6226      8.2244693     -2240.3981     -16401.4      
      8600   167.94405      333.91228     -2247.7781      7.3374635     -2240.4406     -14867.491    
      8650   177.858        353.62354     -2248.2656      7.7706032     -2240.495      -15634.197    
      8700   182.35463      362.56391     -2248.5105      7.9670607     -2240.5434     -19463.163    
      8750   161.45948      321.01944     -2247.6543      7.0541533     -2240.6002     -16901.823    
      8800   164.38459      326.83524     -2247.828       7.181951      -2240.646      -16455.921    
      8850   158.35608      314.84915     -2247.6073      6.918566      -2240.6887     -15505.424    
      8900   169.94235      337.88538     -2248.1709      7.4247692     -2240.7462     -21399.786    
      8950   163.99696      326.06454     -2247.9631      7.1650156     -2240.7981     -17857.416    
      9000   173.1972       344.35679     -2248.4139      7.5669734     -2240.8469     -15157.675    
      9050   173.47656      344.91222     -2248.4828      7.5791787     -2240.9036     -14872.699    
      9100   170.95399      339.89676     -2248.4269      7.4689677     -2240.9579     -15062.017    
      9150   174.50096      346.94897     -2248.6414      7.6239345     -2241.0174     -17363.085    
      9200   160.37952      318.87223     -2248.0763      7.00697       -2241.0693     -18293.9      
      9250   169.9632       337.92682     -2248.5473      7.42568       -2241.1216     -18125.378    
      9300   169.23197      336.47298     -2248.5691      7.3937329     -2241.1754     -20307.879    
      9350   162.18239      322.45674     -2248.3175      7.0857369     -2241.2317     -20141.792    
      9400   176.88486      351.68873     -2249.0154      7.7280872     -2241.2873     -18020.918    
      9450   177.8324       353.57266     -2249.1101      7.769485      -2241.3407     -17047.467    
      9500   173.845        345.64476     -2248.9848      7.5952755     -2241.3895     -19713.56     
      9550   182.8025       363.45439     -2249.4401      7.9866284     -2241.4535     -17752.694    
      9600   169.52408      337.05377     -2248.9136      7.4064952     -2241.5071     -14740.19     
      9650   196.03703      389.76775     -2250.1347      8.564844      -2241.5699     -22641.611    
      9700   190.29503      378.3513      -2249.947       8.3139764     -2241.633      -19589.819    
      9750   183.6776       365.19429     -2249.7203      8.0248615     -2241.6955     -17457.47     
      9800   195.7387       389.17458     -2250.3127      8.5518097     -2241.7609     -16524.112    
      9850   185.75658      369.32779     -2249.9407      8.1156919     -2241.825      -20433.949    
      9900   187.78311      373.357       -2250.0973      8.2042307     -2241.893      -22218.182    
      9950   192.54187      382.81854     -2250.3752      8.4121406     -2241.9631     -16481.995    
     10000   187.30034      372.39714     -2250.2167      8.1831385     -2242.0336     -21089.192    
     10050   189.76873      377.30489     -2250.3895      8.2909825     -2242.0986     -18574.852    
     10100   179.35367      356.59731     -2249.9982      7.8359493     -2242.1623     -19738.735    
     10150   183.07631      363.99878     -2250.2307      7.998591      -2242.2321     -21569.417    
     10200   194.08945      385.8955      -2250.7879      8.4797544     -2242.3081     -20933.847    
     10250   198.85038      395.36134     -2251.0596      8.687759      -2242.3719     -21726.053    
     10300   184.79178      367.40953     -2250.5176      8.0735396     -2242.4441     -20433.982    
     10350   182.51402      362.88081     -2250.483       7.9740245     -2242.509      -22583.38     
     10400   179.91115      357.70569     -2250.4329      7.8603052     -2242.5725     -21053.712    
     10450   187.77172      373.33437     -2250.845       8.2037333     -2242.6413     -19140.288    
     10500   172.04853      342.07295     -2250.2194      7.5167879     -2242.7026     -20938.891    
     10550   171.54905      341.07987     -2250.2662      7.4949658     -2242.7713     -19904.403    
     10600   174.36676      346.68215     -2250.4476      7.6180715     -2242.8295     -21169.519    
     10650   173.6485       345.25408     -2250.4745      7.5866906     -2242.8878     -21068.502    
     10700   181.30286      360.47275     -2250.8708      7.9211091     -2242.9497     -20120.34     
     10750   179.36383      356.6175      -2250.8454      7.8363931     -2243.009      -19059.74     
     10800   185.74395      369.30268     -2251.1892      8.11514       -2243.074      -17073.108    
     10850   178.5512       355.0018      -2250.9338      7.8008894     -2243.1329     -17680.716    
     10900   179.23564      356.36263     -2251.0158      7.8307925     -2243.185      -18628.316    
     10950   181.56252      360.98902     -2251.1822      7.9324538     -2243.2497     -17999.027    
     11000   174.44272      346.83317     -2250.9282      7.6213899     -2243.3068     -17967.156    
     11050   189.39419      376.56021     -2251.6529      8.2746187     -2243.3782     -15972.408    
     11100   194.61625      386.94291     -2251.9438      8.5027703     -2243.441      -19720.691    
     11150   189.08488      375.94524     -2251.7676      8.2611052     -2243.5065     -22227.759    
     11200   193.80198      385.32394     -2252.0329      8.4671949     -2243.5657     -19456.612    
     11250   176.96345      351.84499     -2251.3663      7.7315208     -2243.6348     -16520.125    
     11300   173.94154      345.83672     -2251.3016      7.5994937     -2243.7021     -18906.29     
     11350   180.2713       358.42177     -2251.6423      7.8760405     -2243.7663     -19870.087    
     11400   184.85611      367.53744     -2251.9096      8.0763503     -2243.8332     -17953.491    
     11450   180.30629      358.49133     -2251.7775      7.877569      -2243.8999     -19742.48     
     11500   187.57773      372.94867     -2252.1657      8.1952579     -2243.9704     -20138.923    
     11550   200.816        399.26946     -2252.8152      8.7736367     -2244.0416     -18984.501    
     11600   180.14083      358.16235     -2251.971       7.8703399     -2244.1007     -19327.859    
     11650   188.09829      373.98366     -2252.3871      8.2180009     -2244.1691     -18741.528    
     11700   186.06795      369.94687     -2252.3611      8.1292957     -2244.2318     -24965.736    
     11750   192.05107      381.84272     -2252.6991      8.3906978     -2244.3084     -22185.087    
     11800   174.62957      347.20467     -2251.9965      7.6295534     -2244.367      -24663.004    
     11850   196.2012       390.09415     -2253.0166      8.5720166     -2244.4446     -23764.765    
     11900   196.45762      390.60397     -2253.1059      8.5832193     -2244.5227     -24012.239    
     11950   184.25473      366.34176     -2252.633       8.0500761     -2244.583      -19495.381    
     12000   195.75924      389.21543     -2253.2094      8.5527073     -2244.6567     -19421.207    
     12050   187.75154      373.29424     -2252.9334      8.2028515     -2244.7306     -24729.36     
     12100   177.05737      352.03171     -2252.5324      7.7356239     -2244.7967     -22282.06     
     12150   182.13821      362.13363     -2252.816       7.9576057     -2244.8584     -22970.407    
     12200   193.53191      384.78697     -2253.4004      8.4553953     -2244.945      -19549.118    
     12250   182.80242      363.45422     -2252.9909      7.9866247     -2245.0042     -22902.204    
     12300   190.83313      379.42116     -2253.4248      8.3374857     -2245.0873     -19975.243    
     12350   199.90635      397.46086     -2253.8935      8.7338942     -2245.1596     -20561.462    
     12400   195.94411      389.58299     -2253.7934      8.5607841     -2245.2326     -26485.303    
     12450   189.37943      376.53087     -2253.5834      8.273974      -2245.3094     -25267.999    
     12500   180.8042       359.48129     -2253.271       7.8993227     -2245.3717     -20011.925    
     12550   178.60682      355.11238     -2253.2484      7.8033192     -2245.4451     -22611.548    
     12600   199.10137      395.86038     -2254.2192      8.6987249     -2245.5205     -21637.856    
     12650   169.3623       336.7321      -2252.9864      7.3994268     -2245.587      -20237.757    
     12700   197.55913      392.79404     -2254.2909      8.6313446     -2245.6596     -24116.034    
     12750   183.73903      365.31642     -2253.7476      8.0275451     -2245.72       -22714.3      
     12800   182.15567      362.16834     -2253.753       7.9583685     -2245.7947     -22114.122    
     12850   173.78452      345.52452     -2253.4513      7.5926333     -2245.8587     -24452.847    
     12900   187.01295      371.82575     -2254.0961      8.1705825     -2245.9255     -23939.207    
     12950   182.32749      362.50996     -2253.9611      7.9658752     -2245.9952     -25175.296    
     13000   158.14637      314.4322      -2252.9585      6.9094038     -2246.0491     -18870.328    
     13050   173.31246      344.58595     -2253.6905      7.572009      -2246.1184     -22921.397    
     13100   185.36707      368.55336     -2254.2827      8.0986743     -2246.184      -24559.262    
     13150   181.81277      361.48657     -2254.1967      7.9433871     -2246.2533     -23585.128    
     13200   160.94088      319.98834     -2253.3433      7.0314957     -2246.3118     -20201.731    
     13250   184.57523      366.979       -2254.4444      8.0640789     -2246.3804     -20056.529    
     13300   183.7239       365.28635     -2254.4725      8.0268843     -2246.4457     -23333.937    
     13350   175.70272      349.33835     -2254.183       7.6764394     -2246.5066     -19470.937    
     13400   180.07037      358.02226     -2254.4317      7.8672616     -2246.5644     -23993.874    
     13450   182.75549      363.36092     -2254.6156      7.9845745     -2246.631      -21550.007    
     13500   156.4113       310.98246     -2253.5276      6.8335985     -2246.694      -20967.677    
     13550   170.70767      339.40702     -2254.2184      7.4582061     -2246.7602     -17489.116    
     13600   175.70974      349.3523      -2254.5034      7.676746      -2246.8267     -23039.649    
     13650   175.41436      348.76502     -2254.5479      7.6638409     -2246.8841     -21896.123    
     13700   166.7981       331.63387     -2254.2306      7.2873971     -2246.9432     -23236.352    
     13750   178.36952      354.64058     -2254.8096      7.7929518     -2247.0167     -19894.491    
     13800   166.31577      330.67488     -2254.3435      7.2663241     -2247.0771     -22893.09     
     13850   175.54412      349.02301     -2254.8076      7.6695101     -2247.1381     -21756.526    
     13900   167.16586      332.36505     -2254.4974      7.3034644     -2247.1939     -23782.552    
     13950   171.34242      340.66905     -2254.7315      7.4859382     -2247.2456     -27121.968    
     14000   174.33904      346.62704     -2254.9415      7.6168604     -2247.3246     -25950.106    
     14050   181.75789      361.37745     -2255.3291      7.9409893     -2247.3881     -23326.069    
     14100   184.2917       366.41526     -2255.4948      8.0516913     -2247.4432     -23432.95     
     14150   187.92982      373.64871     -2255.7239      8.2106407     -2247.5133     -23477.626    
     14200   188.43282      374.64878     -2255.8064      8.2326165     -2247.5738     -24744.263    
     14250   208.04835      413.64908     -2256.744       9.0896177     -2247.6544     -26035.129    
     14300   218.90196      435.2286      -2257.2963      9.5638111     -2247.7325     -22473.568    
     14350   195.29156      388.28558     -2256.3382      8.5322745     -2247.8059     -27263.998    
     14400   202.33177      402.28316     -2256.7299      8.8398606     -2247.8901     -23332.496    
     14450   192.72791      383.18843     -2256.379       8.4202687     -2247.9587     -22955.002    
     14500   196.96718      391.6171      -2256.6373      8.6054821     -2248.0318     -26727.1      
     14550   189.11654      376.00817     -2256.3807      8.2624881     -2248.1182     -18874.546    
     14600   223.22751      443.82881     -2257.9498      9.7527941     -2248.197      -25052.42     
     14650   201.06479      399.76411     -2257.0635      8.7845063     -2248.279      -17678.104    
     14700   213.86905      425.22198     -2257.7176      9.3439234     -2248.3737     -16769.4      
     14750   205.6529       408.88635     -2257.4357      8.9849604     -2248.4507     -22372.502    
     14800   201.30258      400.2369      -2257.3391      8.7948956     -2248.5442     -22534.025    
     14850   195.32218      388.34646     -2257.1731      8.5336122     -2248.6394     -23594.584    
     14900   206.2714       410.11608     -2257.7403      9.011983      -2248.7283     -24834.399    
     14950   197.08592      391.85317     -2257.4388      8.6106696     -2248.8281     -28463.988    
     15000   194.11289      385.9421      -2257.3921      8.4807784     -2248.9113     -26389.992    
     15050   197.49254      392.66163     -2257.6298      8.6284349     -2249.0013     -20491.576    
     15100   198.23728      394.14235     -2257.7461      8.6609726     -2249.0851     -27481.99     
     15150   202.83765      403.28897     -2258.0306      8.8619625     -2249.1686     -29972.282    
     15200   198.40868      394.48315     -2257.9321      8.6684613     -2249.2637     -23285.175    
     15250   207.22503      412.01211     -2258.4111      9.0536467     -2249.3574     -29231.916    
     15300   200.22802      398.10043     -2258.178       8.7479482     -2249.4301     -25742.827    
     15350   193.85372      385.42682     -2257.9711      8.4694554     -2249.5016     -25959.748    
     15400   199.47488      396.60299     -2258.311       8.7150433     -2249.596      -23945.386    
     15450   196.46895      390.6265      -2258.2522      8.5837144     -2249.6685     -27055.66     
     15500   174.79947      347.54247     -2257.3805      7.6369762     -2249.7435     -22712.974    
     15550   198.0752       393.8201      -2258.4939      8.6538912     -2249.84       -22634.5      
     15600   193.68591      385.09317     -2258.3764      8.4621238     -2249.9143     -22103.859    
     15650   191.80073      381.34497     -2258.386       8.3797601     -2250.0062     -25616.95     
     15700   187.17872      372.15533     -2258.2632      8.1778248     -2250.0854     -24023.298    
     15750   199.06805      395.79413     -2258.8678      8.6972692     -2250.1705     -27331.048    
     15800   189.92165      377.60893     -2258.5336      8.2976635     -2250.236      -24859.872    
     15850   201.98396      401.59164     -2259.1585      8.8246649     -2250.3338     -21439.466    
     15900   183.45933      364.76031     -2258.4253      8.015325      -2250.4099     -21970.622    
     15950   185.81411      369.44217     -2258.6063      8.1182053     -2250.4881     -26888.804    
     16000   188.55821      374.89809     -2258.8013      8.2380948     -2250.5632     -25771.394    
     16050   199.38269      396.4197      -2259.3561      8.7110155     -2250.645      -24541.976    
     16100   173.28125      344.5239      -2258.295       7.5706456     -2250.7243     -25631.91     
     16150   184.74759      367.32168     -2258.8693      8.0716091     -2250.7977     -24936.625    
     16200   182.57041      362.99294     -2258.8458      7.9764884     -2250.8693     -19409.238    
     16250   177.5962       353.10304     -2258.7048      7.7591655     -2250.9457     -21599.257    
     16300   178.0844       354.07368     -2258.7989      7.7804946     -2251.0184     -24364.917    
     16350   203.63222      404.86877     -2260.0023      8.8966774     -2251.1056     -24551.428    
     16400   187.98443      373.75728     -2259.3939      8.2130264     -2251.1809     -26285.642    
     16450   192.07496      381.89022     -2259.6474      8.3917415     -2251.2556     -26681.913    
     16500   167.0599       332.15438     -2258.6125      7.298835      -2251.3137     -29739.289    
     16550   189.10703      375.98927     -2259.6522      8.2620727     -2251.3902     -28588.962    
     16600   174.70321      347.35109     -2259.0823      7.6327709     -2251.4495     -25237.796    
     16650   172.96211      343.88937     -2259.0745      7.5567022     -2251.5178     -25809.133    
     16700   179.99039      357.86325     -2259.4598      7.8637674     -2251.596      -23994.527    
     16750   168.81734      335.64859     -2259.03        7.3756174     -2251.6544     -24269.8      
     16800   144.80427      287.90496     -2258.0402      6.3264882     -2251.7137     -27705.2      
     16850   162.61094      323.3088      -2258.8822      7.1044602     -2251.7778     -27572.829    
     16900   162.27442      322.63972     -2258.9261      7.0897577     -2251.8363     -26479.225    
     16950   163.42422      324.92579     -2259.0346      7.1399924     -2251.8946     -29954.891    
     17000   173.80716      345.56953     -2259.5527      7.5936224     -2251.9591     -22057.171    
     17050   169.45116      336.90878     -2259.4163      7.4033092     -2252.013      -27655.001    
     17100   174.72507      347.39455     -2259.7203      7.633726      -2252.0865     -26205.132    
     17150   161.44991      321.00041     -2259.1964      7.0537351     -2252.1426     -29798.827    
     17200   166.89267      331.8219      -2259.5012      7.291529      -2252.2096     -26644.973    
     17250   176.16569      350.25885     -2259.9651      7.6966665     -2252.2685     -26807.488    
     17300   176.59411      351.11064     -2260.0452      7.7153841     -2252.3298     -27013.917    
     17350   167.29376      332.61937     -2259.6916      7.3090527     -2252.3825     -25301.828    
     17400   159.61381      317.34982     -2259.4124      6.9735161     -2252.4389     -27903.211    
     17450   174.13958      346.23046     -2260.1074      7.6081459     -2252.4993     -26752.846    
     17500   164.85731      327.77512     -2259.7471      7.2026041     -2252.5445     -28695.099    
     17550   171.47568      340.93399     -2260.0956      7.4917601     -2252.6039     -26140.297    
     17600   167.53692      333.10282     -2259.9824      7.3196763     -2252.6627     -25718.674    
     17650   168.23913      334.49898     -2260.072       7.3503557     -2252.7216     -24626.268    
     17700   165.3525       328.75968     -2259.9939      7.224239      -2252.7696     -24843.325    
     17750   169.46195      336.93024     -2260.2339      7.4037807     -2252.8301     -22013.555    
     17800   151.02492      300.27308     -2259.488       6.5982681     -2252.8897     -23366.097    
     17850   153.34962      304.89513     -2259.6388      6.6998341     -2252.939      -25415.755    
     17900   165.4531       328.95969     -2260.2255      7.2286342     -2252.9969     -28500.172    
     17950   174.22157      346.39348     -2260.6613      7.6117281     -2253.0496     -22644.551    
     18000   156.82229      311.79962     -2259.9572      6.8515548     -2253.1056     -23042.371    
     18050   153.6306       305.45378     -2259.8575      6.7121099     -2253.1454     -28373.493    
     18100   149.03328      296.31323     -2259.716       6.5112535     -2253.2048     -23704.533    
     18150   170.11796      338.23453     -2260.6855      7.4324416     -2253.2531     -26246.563    
     18200   146.02722      290.33647     -2259.6765      6.3799189     -2253.2965     -27451.503    
     18250   151.69861      301.61253     -2259.9585      6.6277016     -2253.3308     -29032.547    
     18300   154.52829      307.2386      -2260.1352      6.75133       -2253.3838     -28703.535    
     18350   157.7599       313.6638      -2260.3202      6.8925187     -2253.4277     -26720.515    
     18400   156.58151      311.32089     -2260.3198      6.8410351     -2253.4788     -28325.832    
     18450   168.90849      335.82982     -2260.9017      7.3796        -2253.5221     -29801.969    
     18500   136.63358      271.65971     -2259.5276      5.9695115     -2253.5581     -32727.454    
     18550   158.14398      314.42744     -2260.5162      6.9092991     -2253.6069     -27428.049    
     18600   167.84862      333.72255     -2260.9869      7.3332942     -2253.6536     -25645.89     
     18650   145.03304      288.3598      -2260.0204      6.3364831     -2253.6839     -25638.363    
     18700   157.02767      312.20795     -2260.5932      6.8605276     -2253.7327     -28433.165    
     18750   160.0551       318.2272      -2260.7629      6.992796      -2253.7701     -27486.47     
     18800   151.55406      301.32512     -2260.4304      6.621386      -2253.809      -23686.709    
     18850   164.94944      327.9583      -2261.0679      7.2066293     -2253.8613     -27120.292    
     18900   153.33423      304.86452     -2260.5873      6.6991614     -2253.8881     -25561.485    
     18950   162.01256      322.1191      -2261.0168      7.0783174     -2253.9385     -28451.802    
     19000   143.64691      285.60385     -2260.2553      6.2759232     -2253.9794     -20550.547    
     19050   148.37508      295.00458     -2260.4903      6.4824969     -2254.0078     -26249.527    
     19100   143.90082      286.10869     -2260.3263      6.2870166     -2254.0393     -23224.637    
     19150   140.42281      279.19359     -2260.2039      6.1350626     -2254.0688     -29258.99     
     19200   150.2732       298.77848     -2260.6839      6.5654254     -2254.1184     -22160.877    
     19250   150.33671      298.90475     -2260.7239      6.5682001     -2254.1557     -25307.045    
     19300   135.49986      269.4056      -2260.1091      5.9199792     -2254.1891     -26524.422    
     19350   148.77981      295.80927     -2260.7199      6.5001793     -2254.2197     -24597.357    
     19400   157.70167      313.54803     -2261.1382      6.8899749     -2254.2482     -28269.512    
     19450   151.36339      300.94604     -2260.9025      6.6130559     -2254.2895     -27485.193    
     19500   153.05619      304.31172     -2260.9986      6.6870141     -2254.3116     -23859.065    
     19550   139.41813      277.19606     -2260.4341      6.0911684     -2254.343      -22981.899    
     19600   145.56512      289.4177      -2260.7373      6.3597296     -2254.3775     -20805.286    
     19650   146.98601      292.24277     -2260.8315      6.4218083     -2254.4097     -22077.766    
     19700   146.61533      291.50578     -2260.8407      6.4056135     -2254.4351     -26021.652    
     19750   153.92778      306.04465     -2261.1985      6.7250939     -2254.4734     -24965.619    
     19800   155.89244      309.95084     -2261.3089      6.8109295     -2254.4979     -28386.96     
     19850   132.93295      264.30198     -2260.3361      5.8078311     -2254.5283     -28477.914    
     19900   136.739        271.8693      -2260.5312      5.974117      -2254.5571     -26790.673    
     19950   128.71895      255.92357     -2260.2059      5.6237219     -2254.5822     -28186.186    
     20000   149.94546      298.12685     -2261.1613      6.5511064     -2254.6102     -25715.384    
     20050   143.38091      285.075       -2260.9007      6.264302      -2254.6364     -25895.83     
     20100   143.83288      285.9736      -2260.9426      6.2840482     -2254.6585     -22297.763    
     20150   135.81781      270.03776     -2260.6214      5.9338704     -2254.6875     -27567.515    
     20200   130.48032      259.42558     -2260.3979      5.700676      -2254.6972     -25997.044    
     20250   148.43814      295.12995     -2261.2133      6.4852519     -2254.7281     -26622.181    
     20300   145.44953      289.18788     -2261.1081      6.3546794     -2254.7534     -26391.221    
     20350   141.36193      281.06079     -2260.9528      6.1760929     -2254.7767     -26574.27     
     20400   155.29276      308.75855     -2261.5892      6.7847297     -2254.8045     -23600.707    
     20450   149.79198      297.8217      -2261.3678      6.544401      -2254.8234     -26237.505    
     20500   143.04202      284.40119     -2261.0931      6.2494956     -2254.8436     -28413.289    
     20550   141.82598      281.98342     -2261.0632      6.196367      -2254.8668     -26987.439    
     20600   134.53193      267.48113     -2260.7691      5.8776904     -2254.8914     -26852.482    
     20650   136.58776      271.56861     -2260.8744      5.9675096     -2254.9069     -27125.006    
     20700   138.89237      276.15072     -2260.9981      6.068198      -2254.9299     -26184.637    
     20750   146.70994      291.69389     -2261.3652      6.409747      -2254.9554     -26924.61     
     20800   148.88145      296.01134     -2261.4762      6.5046198     -2254.9716     -29583.049    
     20850   141.22739      280.79328     -2261.1496      6.1702146     -2254.9794     -26956.483    
     20900   147.20106      292.67035     -2261.4333      6.4312039     -2255.0021     -25303.281    
     20950   137.00996      272.40805     -2261.0068      5.9859556     -2255.0208     -26255.273    
     21000   130.55265      259.56938     -2260.7441      5.7038359     -2255.0402     -28723.236    
     21050   138.56124      275.49235     -2261.1125      6.0537308     -2255.0588     -26861.677    
     21100   123.48862      245.52443     -2260.4625      5.3952089     -2255.0673     -26485.91     
     21150   146.08032      290.44206     -2261.474       6.382239      -2255.0917     -23666.897    
     21200   147.8312       293.92322     -2261.5755      6.4587348     -2255.1168     -25082.036    
     21250   139.9584       278.27023     -2261.244       6.1147724     -2255.1292     -27250.516    
     21300   150.84172      299.90883     -2261.7333      6.5902641     -2255.143      -25292.833    
     21350   143.90995      286.12685     -2261.4436      6.2874157     -2255.1561     -25864.359    
     21400   149.48935      297.21999     -2261.7004      6.5311789     -2255.1692     -25942.049    
     21450   151.73235      301.67961     -2261.8144      6.6291755     -2255.1852     -22945.485    
     21500   134.74761      267.90995     -2261.0869      5.8871135     -2255.1998     -21728.853    
     21550   133.42801      265.28627     -2261.0483      5.8294601     -2255.2188     -25655.039    
     21600   147.72737      293.71677     -2261.6926      6.4541983     -2255.2384     -27678.867    
     21650   138.58265      275.53492     -2261.3093      6.0546663     -2255.2547     -26747.212    
     21700   144.44692      287.19446     -2261.5806      6.3108755     -2255.2697     -26106.978    
     21750   148.94357      296.13486     -2261.7893      6.5073338     -2255.282      -26696.765    
     21800   138.63146      275.63197     -2261.3502      6.0567987     -2255.2934     -28268.393    
     21850   140.84295      280.02892     -2261.4623      6.1534184     -2255.3089     -26290.641    
     21900   159.57758      317.27778     -2262.2905      6.9719333     -2255.3185     -29400.212    
     21950   150.02367      298.28235     -2261.8842      6.5545234     -2255.3296     -24933.396    
     22000   152.62664      303.45767     -2261.9987      6.6682469     -2255.3304     -25005.943    
     22050   143.76281      285.83429     -2261.6245      6.2809869     -2255.3435     -27354.829    
     22100   139.58924      277.53626     -2261.4581      6.0986442     -2255.3595     -27158.639    
     22150   151.49012      301.198       -2261.9909      6.6185925     -2255.3723     -26943.964    
     22200   154.69993      307.57986     -2262.1383      6.758829      -2255.3795     -24601.363    
     22250   144.67383      287.64561     -2261.7056      6.3207893     -2255.3848     -25669.838    
     22300   147.95372      294.16681     -2261.8606      6.4640876     -2255.3965     -27609.486    
     22350   143.25494      284.82453     -2261.6642      6.2587983     -2255.4054     -27623.859    
     22400   157.21552      312.58145     -2262.284       6.868735      -2255.4152     -26075        
     22450   158.65415      315.44178     -2262.3559      6.9315886     -2255.4244     -26935.653    
     22500   139.5557       277.46957     -2261.5285      6.0971787     -2255.4313     -24961.667    
     22550   148.50727      295.26739     -2261.93        6.488272      -2255.4418     -21629.256    
     22600   133.70645      265.83988     -2261.2888      5.8416252     -2255.4472     -28167.709    
     22650   158.46316      315.06204     -2262.387       6.9232442     -2255.4637     -22860.793    
     22700   143.49289      285.29763     -2261.7359      6.2691943     -2255.4667     -28197.753    
     22750   140.78182      279.90739     -2261.6219      6.1507479     -2255.4712     -26945.191    
     22800   146.63075      291.53642     -2261.8924      6.4062869     -2255.4861     -27628.719    
     22850   140.00511      278.3631      -2261.6131      6.1168132     -2255.4963     -26849.659    
     22900   148.3154       294.88592     -2261.981       6.4798894     -2255.5011     -22622.938    
     22950   136.36424      271.12419     -2261.4592      5.9577439     -2255.5014     -24680.741    
     23000   145.54572      289.37913     -2261.86        6.358882      -2255.5011     -29068.918    
     23050   134.25111      266.92279     -2261.3801      5.8654213     -2255.5147     -26740.352    
     23100   126.97098      252.44818     -2261.0632      5.547353      -2255.5159     -25719.175    
     23150   117.33661      233.29279     -2260.6451      5.1264281     -2255.5187     -27146.705    
     23200   136.30192      271.00029     -2261.4776      5.9550212     -2255.5225     -30208.258    
     23250   142.36131      283.04778     -2261.7499      6.2197556     -2255.5302     -27171.884    
     23300   141.62369      281.58123     -2261.7217      6.1875291     -2255.5341     -26182.107    
     23350   138.72221      275.8124      -2261.5879      6.0607636     -2255.5271     -25440.857    
     23400   130.20447      258.87712     -2261.214       5.6886241     -2255.5254     -26546.464    
     23450   150.12183      298.47753     -2262.0886      6.5588123     -2255.5298     -27118.882    
     23500   141.87516      282.0812      -2261.7281      6.1985156     -2255.5296     -25652.566    
     23550   144.86345      288.02262     -2261.8566      6.3290737     -2255.5276     -29633.753    
     23600   140.84458      280.03217     -2261.6768      6.1534898     -2255.5233     -27178.536    
     23650   133.5879       265.60417     -2261.3611      5.8364458     -2255.5247     -25209.146    
     23700   137.7826       273.94423     -2261.5388      6.0197121     -2255.5191     -24542.091    
     23750   135.19952      268.80846     -2261.4168      5.9068574     -2255.51       -24526.313    
     23800   137.48626      273.35504     -2261.5085      6.0067651     -2255.5017     -22163.524    
     23850   141.96131      282.25248     -2261.7019      6.2022793     -2255.4996     -24469.707    
     23900   144.46632      287.23304     -2261.8098      6.3117233     -2255.4981     -25003.085    
     23950   132.37415      263.19096     -2261.2665      5.7834173     -2255.483      -26111.948    
     24000   138.07375      274.52311     -2261.5114      6.0324325     -2255.4789     -25924.584    
     24050   151.78017      301.77469     -2262.1076      6.6312649     -2255.4763     -24463.282    
     24100   146.49929      291.27506     -2261.8674      6.4005436     -2255.4669     -21417.437    
     24150   143.14773      284.61137     -2261.7074      6.2541142     -2255.4533     -25346.499    
     24200   142.60631      283.53489     -2261.6791      6.2304595     -2255.4486     -26518.401    
     24250   139.12511      276.61345     -2261.5261      6.0783661     -2255.4478     -26347.095    
     24300   146.24254      290.76457     -2261.8302      6.389326      -2255.4409     -25687.684    
     24350   135.5191       269.44386     -2261.3368      5.9208199     -2255.416      -24422.753    
     24400   135.77328      269.94923     -2261.3422      5.931925      -2255.4103     -25444.847    
     24450   155.72951      309.62691     -2262.2033      6.8038114     -2255.3995     -22644.73     
     24500   139.56401      277.48608     -2261.494       6.0975415     -2255.3965     -24021.846    
     24550   136.17689      270.75169     -2261.3383      5.9495585     -2255.3887     -28359.678    
     24600   144.25728      286.81741     -2261.6843      6.3025902     -2255.3818     -23427.586    
     24650   148.10104      294.45972     -2261.8364      6.4705241     -2255.3658     -23874.562    
     24700   144.18194      286.66763     -2261.655       6.2992989     -2255.3557     -28029.503    
     24750   136.44433      271.28343     -2261.2996      5.9612429     -2255.3384     -25456.374    
     24800   129.00804      256.49835     -2260.9645      5.6363523     -2255.3281     -29015.513    
     24850   144.36394      287.02949     -2261.6237      6.3072505     -2255.3165     -28853.31     
     24900   141.47482      281.28523     -2261.4742      6.1810249     -2255.2932     -21274.137    
     24950   134.01708      266.45749     -2261.1393      5.8551968     -2255.2841     -26249.379    
     25000   137.38223      273.14819     -2261.2751      6.0022197     -2255.2729     -28025.805    
     25050   136.53644      271.46656     -2261.2269      5.9652672     -2255.2616     -29940.143    
     25100   138.15131      274.6773      -2261.273       6.0358208     -2255.2372     -26621.034    
     25150   144.32287      286.94782     -2261.5276      6.3054559     -2255.2221     -25222.028    
     25200   146.8754       292.02285     -2261.6237      6.4169757     -2255.2068     -25699.592    
     25250   135.14899      268.708       -2261.0972      5.9046499     -2255.1925     -27852.532    
     25300   133.70842      265.8438      -2261.0079      5.8417115     -2255.1662     -27976.143    
     25350   147.97462      294.20836     -2261.6243      6.4650006     -2255.1593     -29865.936    
     25400   133.06457      264.56367     -2260.9413      5.8135815     -2255.1277     -27850.08     
     25450   138.31011      274.99303     -2261.1596      6.0427587     -2255.1169     -26045.499    
     25500   153.99525      306.17879     -2261.824       6.7280416     -2255.096      -29428.74     
     25550   140.8484       280.03975     -2261.2211      6.1536564     -2255.0675     -26417.125    
     25600   148.23547      294.72699     -2261.5319      6.4763971     -2255.0555     -26995.836    
     25650   150.85451      299.93427     -2261.629       6.590823      -2255.0381     -23954.99     
     25700   130.13328      258.73557     -2260.6906      5.6855136     -2255.0051     -23249.912    
     25750   145.17636      288.64477     -2261.3207      6.342745      -2254.978      -25133.342    
     25800   147.75055      293.76285     -2261.4156      6.4552109     -2254.9604     -24834.115    
     25850   147.18538      292.63916     -2261.3729      6.4305187     -2254.9424     -23462.414    
     25900   148.69327      295.63721     -2261.4139      6.4963984     -2254.9175     -24515.997    
     25950   154.26642      306.71795     -2261.6491      6.7398891     -2254.9092     -22073.214    
     26000   154.20592      306.59765     -2261.6165      6.7372456     -2254.8793     -21627.682    
     26050   142.44062      283.20547     -2261.0903      6.2232207     -2254.8671     -30807.544    
     26100   148.84074      295.93041     -2261.3554      6.5028414     -2254.8526     -27591.78     
     26150   146.24252      290.76454     -2261.2161      6.3893252     -2254.8268     -23361.078    
     26200   145.56417      289.41582     -2261.1726      6.3596882     -2254.8129     -21950.248    
     26250   149.91438      298.06507     -2261.3342      6.5497488     -2254.7845     -27190.59     
     26300   160.47876      319.06953     -2261.7813      7.0113055     -2254.77       -25220.326    
     26350   137.57567      273.5328      -2260.7629      6.0106713     -2254.7523     -24247.986    
     26400   149.35421      296.95131     -2261.2633      6.5252748     -2254.738      -26836.195    
     26450   146.47549      291.22774     -2261.1158      6.3995037     -2254.7163     -26326.099    
     26500   157.52518      313.19711     -2261.5821      6.8822637     -2254.6998     -25551.879    
     26550   153.10272      304.40422     -2261.3624      6.6890468     -2254.6734     -27775.261    
     26600   157.01026      312.17335     -2261.5107      6.8597673     -2254.651      -27008.096    
     26650   160.69189      319.49329     -2261.6494      7.0206173     -2254.6287     -27822.15     
     26700   144.72944      287.75619     -2260.9262      6.3232191     -2254.603      -27140.553    
     26750   138.79173      275.95061     -2260.6517      6.0638006     -2254.5879     -25127.368    
     26800   159.561        317.24481     -2261.5397      6.9712086     -2254.5685     -27474.933    
     26850   160.16851      318.45268     -2261.5446      6.9977507     -2254.5469     -24359.548    
     26900   150.70977      299.64648     -2261.1172      6.5844991     -2254.5327     -29249.575    
     26950   162.11897      322.33066     -2261.5934      7.0829662     -2254.5105     -25845.153    
     27000   160.80147      319.71116     -2261.5131      7.0254048     -2254.4877     -29090.009    
     27050   133.77314      265.97247     -2260.3135      5.8445388     -2254.469      -32537.597    
     27100   155.81008      309.78709     -2261.258       6.8073311     -2254.4506     -30484.657    
     27150   152.53943      303.28427     -2261.0831      6.6644368     -2254.4187     -30189.713    
     27200   155.62512      309.41936     -2261.2064      6.7992505     -2254.4071     -27692.229    
     27250   173.94104      345.83571     -2261.9834      7.5994716     -2254.3839     -23917.689    
     27300   161.69852      321.4947      -2261.4355      7.0645968     -2254.3709     -23738.741    
     27350   161.21091      320.52523     -2261.3967      7.0432934     -2254.3534     -24591.897    
     27400   168.96473      335.94164     -2261.7189      7.3820572     -2254.3368     -24798.928    
     27450   152.84272      303.88728     -2260.9881      6.6776874     -2254.3104     -26643.891    
     27500   159.25037      316.62721     -2261.2563      6.9576374     -2254.2986     -26055.9      
     27550   146.53779      291.35161     -2260.6773      6.4022258     -2254.2751     -31240.808    
     27600   159.01735      316.16391     -2261.2122      6.9474567     -2254.2647     -25912.682    
     27650   156.94071      312.03506     -2261.1008      6.8567285     -2254.2441     -24694.137    
     27700   159.48392      317.09157     -2261.2069      6.9678413     -2254.2391     -24241.861    
     27750   159.42353      316.97149     -2261.1906      6.9652028     -2254.2254     -22551.355    
     27800   158.67481      315.48286     -2261.1408      6.9324913     -2254.2083     -25130.587    
     27850   162.60073      323.28852     -2261.3023      7.1040145     -2254.1982     -30216.778    
     27900   153.51271      305.21939     -2260.896       6.7069594     -2254.189      -29738.688    
     27950   156.74256      311.64108     -2261.0287      6.8480712     -2254.1806     -26517.501    
     28000   158.92532      315.98093     -2261.1102      6.9434359     -2254.1667     -29084.848    
     28050   163.29883      324.67649     -2261.2977      7.1345142     -2254.1632     -28374.313    
     28100   148.4875       295.22808     -2260.6359      6.4874083     -2254.1485     -28542.639    
     28150   162.52467      323.13728     -2261.2544      7.1006912     -2254.1538     -26902.569    
     28200   161.27288      320.64842     -2261.2013      7.0460005     -2254.1553     -25181.945    
     28250   167.7485       333.52349     -2261.4721      7.3289202     -2254.1432     -26711.566    
     28300   147.85165      293.96388     -2260.5959      6.4596283     -2254.1363     -29161.14     
     28350   157.86095      313.86471     -2261.0259      6.8969336     -2254.129      -31752.811    
     28400   151.30689      300.83371     -2260.7263      6.6105875     -2254.1157     -29963.11     
     28450   164.60203      327.26756     -2261.3113      7.1914508     -2254.1198     -26633.885    
     28500   150.23044      298.69347     -2260.679       6.5635574     -2254.1154     -23657.965    
     28550   159.37984      316.88462     -2261.0694      6.9632938     -2254.1061     -22249.121    
     28600   157.21248      312.5754      -2260.9694      6.8686021     -2254.1008     -26536.787    
     28650   164.19677      326.46182     -2261.275       7.1737453     -2254.1013     -23980.569    
     28700   156.11472      310.3928      -2260.9194      6.820641      -2254.0987     -26602.57     
     28750   172.28251      342.53816     -2261.6281      7.5270105     -2254.1011     -24021.178    
     28800   168.18713      334.39559     -2261.4466      7.3480839     -2254.0986     -26021.938    
     28850   170.67717      339.34638     -2261.5587      7.4568736     -2254.1018     -25856.186    
     28900   165.95193      329.95149     -2261.3405      7.2504281     -2254.09       -25486.192    
     28950   168.84964      335.71281     -2261.4747      7.3770287     -2254.0977     -28118.611    
     29000   163.15467      324.38987     -2261.2225      7.1282158     -2254.0942     -26462.71     
     29050   157.28273      312.71508     -2260.9684      6.8716714     -2254.0967     -25195.03     
     29100   163.25774      324.59479     -2261.2283      7.1327189     -2254.0956     -24575.636    
     29150   159.80953      317.73895     -2261.0842      6.9820671     -2254.1022     -25987.054    
     29200   154.02654      306.241       -2260.8327      6.7294086     -2254.1033     -25880.274    
     29250   150.88022      299.98538     -2260.6982      6.5919462     -2254.1062     -25257.572    
     29300   153.82943      305.8491      -2260.8345      6.7207967     -2254.1137     -26731.692    
     29350   158.74369      315.61981     -2261.0555      6.9355005     -2254.12       -25477.494    
     29400   167.80149      333.62884     -2261.4598      7.3312351     -2254.1286     -25781.272    
     29450   161.74474      321.58659     -2261.2055      7.066616      -2254.1389     -26357.881    
     29500   160.74121      319.59135     -2261.1742      7.0227721     -2254.1515     -25865.956    
     29550   157.44902      313.0457      -2261.0349      6.8789366     -2254.156      -27337.637    
     29600   158.2799       314.69769     -2261.0782      6.9152378     -2254.1629     -23997.462    
     29650   160.58264      319.27608     -2261.1751      7.0158443     -2254.1593     -27553.444    
     29700   159.77129      317.66292     -2261.1592      6.9803963     -2254.1788     -23877.106    
     29750   165.96137      329.97026     -2261.444       7.2508405     -2254.1932     -22430.679    
     29800   157.67905      313.50305     -2261.0978      6.8889865     -2254.2088     -25145.823    
     29850   163.16474      324.40989     -2261.3511      7.1286557     -2254.2224     -27324.083    
     29900   168.75944      335.53348     -2261.6214      7.373088      -2254.2484     -28436.758    
     29950   147.42308      293.11176     -2260.6908      6.4409038     -2254.2499     -26697.018    
     30000   158.97691      316.08351     -2261.2194      6.94569       -2254.2737     -25104.307    
     30050   156.52046      311.19951     -2261.13        6.8383679     -2254.2917     -30179.205    
     30100   153.52467      305.24317     -2261.0158      6.7074821     -2254.3083     -25848.314    
     30150   142.86865      284.05649     -2260.5514      6.2419211     -2254.3095     -26988.353    
     30200   158.0329       314.20659     -2261.2505      6.9044461     -2254.346      -24922.18     
     30250   140.51393      279.37475     -2260.4924      6.1390435     -2254.3534     -27658.957    
     30300   159.46667      317.05726     -2261.3433      6.9670875     -2254.3762     -23667.074    
     30350   156.30857      310.77822     -2261.2259      6.8291104     -2254.3968     -28933.313    
     30400   157.16042      312.47188     -2261.2805      6.8663274     -2254.4141     -28068.778    
     30450   159.20394      316.53489     -2261.3905      6.9556087     -2254.4349     -27248.733    
     30500   158.06232      314.26509     -2261.3527      6.9057316     -2254.447      -28242.6      
     30550   172.89786      343.76162     -2262.0294      7.5538951     -2254.4755     -26504.966    
     30600   146.5093       291.29497     -2260.8944      6.400981      -2254.4934     -25134.975    
     30650   144.66962      287.63724     -2260.8291      6.3206053     -2254.5085     -25624.6      
     30700   155.73959      309.64694     -2261.3284      6.8042515     -2254.5241     -27728.231    
     30750   147.98853      294.23602     -2261.0133      6.4656085     -2254.5477     -27676.161    
     30800   158.48793      315.11129     -2261.5015      6.9243262     -2254.5772     -25861.5      
     30850   163.58978      325.25497     -2261.7382      7.1472258     -2254.591      -24501.512    
     30900   157.65878      313.46276     -2261.5036      6.888101      -2254.6155     -27052.15     
     30950   161.08795      320.28075     -2261.6763      7.0379211     -2254.6384     -26698.932    
     31000   153.67952      305.55104     -2261.3706      6.7142472     -2254.6563     -28547.238    
     31050   160.65153      319.41304     -2261.7062      7.0188539     -2254.6874     -27429.761    
     31100   140.91871      280.17955     -2260.8571      6.1567283     -2254.7004     -26819.232    
     31150   143.2034       284.72205     -2260.9908      6.2565462     -2254.7343     -26771.612    
     31200   159.80344      317.72684     -2261.7309      6.9818009     -2254.7491     -27219.988    
     31250   149.97181      298.17925     -2261.318       6.5522579     -2254.7657     -25913.179    
     31300   157.3065       312.76233     -2261.6619      6.8727098     -2254.7891     -27732.389    
     31350   145.6853       289.65666     -2261.1788      6.3649806     -2254.8138     -21850.218    
     31400   154.3657       306.91533     -2261.5792      6.7442264     -2254.835      -25991.481    
     31450   158.77499      315.68203     -2261.8037      6.9368679     -2254.8669     -25362.417    
     31500   148.67925      295.60934     -2261.3764      6.4957861     -2254.8806     -23832.067    
     31550   157.33291      312.81485     -2261.7853      6.8738637     -2254.9114     -29334.498    
     31600   148.28891      294.83324     -2261.4084      6.4787318     -2254.9297     -25866.461    
     31650   143.86649      286.04044     -2261.241       6.2855169     -2254.9554     -22432.817    
     31700   151.41431      301.04727     -2261.5942      6.6152804     -2254.9789     -26513.566    
     31750   154.07443      306.33622     -2261.7409      6.7315008     -2255.0094     -29247.984    
     31800   144.16707      286.63806     -2261.3215      6.298649      -2255.0229     -28385.599    
     31850   137.61451      273.61003     -2261.0616      6.0123682     -2255.0493     -24616.646    
     31900   150.61731      299.46266     -2261.6583      6.5804597     -2255.0778     -27682.633    
     31950   136.15978      270.71768     -2261.0499      5.948811      -2255.1011     -25355.663    
     32000   147.32938      292.92547     -2261.5508      6.43681       -2255.114      -28005.8      
     32050   149.18625      296.61737     -2261.6583      6.5179367     -2255.1404     -23698.808    
     32100   146.59833      291.47197     -2261.5731      6.4048706     -2255.1683     -28127.719    
     32150   152.1204       302.45115     -2261.8429      6.6461296     -2255.1968     -26948.924    
     32200   146.22978      290.7392      -2261.6032      6.3887686     -2255.2144     -26396.562    
     32250   155.49648      309.16358     -2262.0332      6.79363       -2255.2396     -27878.08     
     32300   146.3259       290.93032     -2261.6474      6.3929681     -2255.2544     -27387.216    
     32350   150.56155      299.35179     -2261.855       6.5780235     -2255.277      -24508.645    
     32400   142.54814      283.41924     -2261.5275      6.2279181     -2255.2996     -30572.699    
     32450   154.33925      306.86275     -2262.0641      6.7430711     -2255.321      -26200.525    
     32500   139.8166       277.98831     -2261.4467      6.1085775     -2255.3381     -29932.355    
     32550   166.13064      330.3068      -2262.6283      7.2582357     -2255.3701     -25321.465    
     32600   141.55918      281.45296     -2261.5663      6.1847106     -2255.3816     -24317.733    
     32650   139.56122      277.48054     -2261.4926      6.0974198     -2255.3952     -24101.512    
     32700   141.28346      280.90475     -2261.5908      6.1726642     -2255.4182     -24250.556    
     32750   149.92173      298.07968     -2261.9922      6.5500699     -2255.4422     -24593.167    
     32800   143.68693      285.68342     -2261.7397      6.2776717     -2255.4621     -27417.547    
     32850   150.77441      299.77501     -2262.0778      6.5873235     -2255.4904     -27167.747    
[...]
    192000   147.97179      294.20274     -2267.1641      6.4648772     -2260.6992     -25116.884    
    192050   142.74003      283.80078     -2266.9159      6.236302      -2260.6796     -24833.18     
    192100   136.11138      270.62145     -2266.6103      5.9466965     -2260.6636     -26470.253    
    192150   147.65272      293.56834     -2267.0947      6.4509367     -2260.6438     -27080.788    
    192200   143.9637       286.2337      -2266.9116      6.2897637     -2260.6218     -27319.774    
    192250   145.59122      289.4696      -2266.9645      6.36087       -2260.6036     -26384.805    
    192300   148.61805      295.48766     -2267.0721      6.4931122     -2260.579      -29768.917    
    192350   138.23437      274.84245     -2266.6004      6.0394497     -2260.5609     -29634.255    
    192400   148.75426      295.75848     -2267.0382      6.4990632     -2260.5391     -26973.79     
    192450   140.65982      279.66481     -2266.6613      6.1454175     -2260.5158     -28906.296    
    192500   132.25111      262.94633     -2266.2598      5.7780418     -2260.4817     -24916.824    
    192550   155.11487      308.40486     -2267.2365      6.7769578     -2260.4596     -24845.741    
    192600   136.8241       272.03851     -2266.4012      5.9778353     -2260.4234     -25162.392    
    192650   149.34616      296.93532     -2266.9206      6.5249233     -2260.3957     -26676.87     
    192700   155.36366      308.89951     -2267.1646      6.7878273     -2260.3768     -28070.233    
    192750   130.92166      260.30307     -2266.0611      5.7199582     -2260.3412     -25790.793    
    192800   150.60294      299.43407     -2266.8938      6.5798316     -2260.314      -26300.544    
    192850   139.24551      276.85285     -2266.3734      6.0836266     -2260.2898     -27651.715    
    192900   149.19311      296.63101     -2266.779       6.5182364     -2260.2608     -25451.448    
    192950   149.07175      296.38971     -2266.745       6.512934      -2260.232      -25977.271    
    193000   150.24215      298.71675     -2266.7585      6.5640689     -2260.1944     -31465.552    
    193050   154.97993      308.13657     -2266.9483      6.7710622     -2260.1773     -27222.563    
    193100   155.47286      309.11663     -2266.95        6.7925983     -2260.1574     -30895.171    
    193150   145.13226      288.55709     -2266.4589      6.3408183     -2260.1181     -30860.419    
    193200   157.67256      313.49015     -2266.9807      6.8887029     -2260.092      -28374.96     
    193250   154.2646       306.71432     -2266.8077      6.7398093     -2260.0679     -28065.862    
    193300   140.56612      279.47852     -2266.1781      6.1413239     -2260.0368     -30271.749    
    193350   147.00332      292.27719     -2266.4318      6.4225646     -2260.0092     -28335.455    
    193400   156.89531      311.9448      -2266.8368      6.8547451     -2259.9821     -28753.596    
    193450   147.15465      292.57807     -2266.387       6.4291761     -2259.9578     -24700.635    
    193500   157.80029      313.7441      -2266.8273      6.8942834     -2259.933      -27360.076    
    193550   150.87781      299.98059     -2266.4996      6.5918408     -2259.9077     -29386.079    
    193600   136.09354      270.58598     -2265.8306      5.9459171     -2259.8847     -28088.379    
    193650   163.08188      324.24515     -2266.9886      7.1250358     -2259.8635     -30521.694    
    193700   144.79145      287.87947     -2266.1627      6.325928      -2259.8367     -24991.589    
    193750   170.06852      338.13623     -2267.255       7.4302815     -2259.8247     -25760.381    
    193800   152.7997       303.80176     -2266.4796      6.6758081     -2259.8038     -22762.826    
    193850   155.43665      309.04464     -2266.5663      6.7910163     -2259.7753     -25242.35     
    193900   145.49234      289.27301     -2266.1095      6.3565501     -2259.7529     -24655.368    
    193950   153.22084      304.63908     -2266.4212      6.6942076     -2259.727      -26826.005    
    194000   158.63051      315.39478     -2266.6482      6.9305557     -2259.7176     -28003.655    
    194050   150.17565      298.58453     -2266.2575      6.5611636     -2259.6963     -26517.208    
    194100   155.00539      308.18718     -2266.4472      6.7721744     -2259.6751     -26353.405    
    194150   140.8756       280.09384     -2265.8183      6.154845      -2259.6635     -25692.328    
    194200   148.29881      294.85293     -2266.1318      6.4791646     -2259.6527     -25417.186    
    194250   145.6695       289.62525     -2266.0074      6.3642902     -2259.6431     -30599.339    
    194300   149.59615      297.43235     -2266.1684      6.5358452     -2259.6326     -30317.454    
    194350   161.42834      320.95751     -2266.6739      7.0527925     -2259.6211     -30044.824    
    194400   138.51514      275.40069     -2265.6465      6.0517167     -2259.5948     -30773.47     
    194450   160.26338      318.64131     -2266.5939      7.0018957     -2259.592      -29624.404    
    194500   144.91836      288.1318      -2265.9006      6.3314728     -2259.5691     -31388.531    
    194550   164.54016      327.14455     -2266.7474      7.1887479     -2259.5587     -29609.691    
    194600   159.65822      317.4381      -2266.5213      6.9754562     -2259.5458     -28808.501    
    194650   160.69961      319.50863     -2266.5632      7.0209545     -2259.5422     -26993.96     
    194700   158.10869      314.35727     -2266.4449      6.9077573     -2259.5372     -24403.538    
    194750   154.44853      307.08002     -2266.2706      6.7478453     -2259.5228     -30971.685    
    194800   158.86814      315.86724     -2266.4641      6.9409376     -2259.5232     -29479.1      
    194850   156.87273      311.89989     -2266.3679      6.8537583     -2259.5141     -25945.038    
    194900   162.23982      322.57094     -2266.5926      7.0882462     -2259.5043     -23527.947    
    194950   164.84688      327.75439     -2266.7059      7.2021486     -2259.5038     -25804.88     
    195000   155.7261       309.62014     -2266.2886      6.8036624     -2259.485      -28533.964    
    195050   157.38982      312.928       -2266.3661      6.8763502     -2259.4897     -22923.391    
    195100   156.16548      310.49373     -2266.3058      6.8228589     -2259.4829     -27656.944    
    195150   153.64404      305.4805      -2266.2007      6.7126971     -2259.488      -26270.512    
    195200   151.62423      301.46464     -2266.108       6.6244518     -2259.4835     -29478.569    
    195250   155.14773      308.47019     -2266.2725      6.7783932     -2259.4941     -28224.238    
    195300   164.7346       327.53115     -2266.6973      7.197243      -2259.5001     -27831.744    
    195350   159.70301      317.52717     -2266.4779      6.9774133     -2259.5005     -27663.964    
    195400   165.92149      329.89096     -2266.7401      7.2490982     -2259.491      -27446.274    
    195450   144.89191      288.0792      -2265.8051      6.3303171     -2259.4748     -29503.02     
    195500   147.62257      293.50841     -2265.9239      6.4496198     -2259.4743     -28930.116    
    195550   163.85785      325.78796     -2266.6495      7.1589377     -2259.4906     -25958.744    
    195600   153.75159      305.69434     -2266.2069      6.7173962     -2259.4895     -24068.504    
    195650   153.38706      304.96957     -2266.1783      6.7014698     -2259.4768     -24958.454    
    195700   160.13023      318.37658     -2266.4757      6.9960786     -2259.4796     -28364.011    
    195750   140.37609      279.1007      -2265.608       6.1330215     -2259.475      -25637.361    
    195800   150.89611      300.01697     -2266.066       6.5926404     -2259.4733     -24438.001    
    195850   156.01951      310.2035      -2266.2993      6.8164813     -2259.4828     -26694.189    
    195900   155.943        310.05138     -2266.2942      6.8131386     -2259.4811     -27166.771    
    195950   162.79107      323.66695     -2266.6024      7.1123303     -2259.4901     -28403.095    
    196000   176.91134      351.74138     -2267.2251      7.729244      -2259.4959     -28729.763    
    196050   144.68574      287.66929     -2265.8065      6.3213096     -2259.4852     -29856.897    
    196100   152.10863      302.42775     -2266.1365      6.6456153     -2259.4909     -27678.317    
    196150   149.18171      296.60835     -2266.0085      6.5177385     -2259.4908     -29605.134    
    196200   144.07652      286.45802     -2265.7778      6.2946928     -2259.4831     -26323.685    
    196250   153.30843      304.81323     -2266.1943      6.6980344     -2259.4963     -27104.376    
    196300   158.63058      315.39492     -2266.4304      6.9305589     -2259.4998     -30740.918    
    196350   143.49861      285.30901     -2265.769       6.2694443     -2259.4995     -27480.091    
    196400   150.57147      299.37152     -2266.0777      6.578457      -2259.4993     -27408.449    
    196450   146.50854      291.29345     -2265.9057      6.4009478     -2259.5048     -23352.707    
    196500   158.61976      315.3734      -2266.4376      6.9300859     -2259.5075     -26654.177    
    196550   162.75327      323.59179     -2266.6243      7.1106787     -2259.5136     -26591.58     
    196600   173.78272      345.52093     -2267.117       7.5925546     -2259.5244     -24852.994    
    196650   153.95559      306.09994     -2266.2536      6.7263088     -2259.5273     -26429.748    
    196700   160.90272      319.91246     -2266.5639      7.0298283     -2259.5341     -24056.101    
    196750   143.98371      286.2735      -2265.825       6.2906383     -2259.5343     -29454.64     
    196800   147.63838      293.53983     -2265.997       6.4503102     -2259.5467     -27528.252    
    196850   157.51077      313.16847     -2266.4437      6.8816344     -2259.5621     -28354.076    
    196900   150.57589      299.38029     -2266.1394      6.5786498     -2259.5608     -26804.788    
    196950   159.34257      316.81051     -2266.5297      6.9616654     -2259.568      -27619.41     
    197000   164.14601      326.36089     -2266.7505      7.1715276     -2259.579      -26984.111    
    197050   152.81548      303.83312     -2266.2565      6.6764973     -2259.58       -24240.904    
    197100   142.06721      282.46305     -2265.7959      6.2069065     -2259.589      -27533.531    
    197150   157.82112      313.78551     -2266.4851      6.8951933     -2259.5899     -30507.238    
    197200   151.93915      302.09079     -2266.2324      6.6382108     -2259.5942     -29025.076    
    197250   153.10509      304.40894     -2266.2847      6.6891504     -2259.5955     -30858.87     
    197300   168.01757      334.05847     -2266.9436      7.3406758     -2259.6029     -26450.196    
    197350   155.21433      308.60262     -2266.3945      6.7813032     -2259.6132     -24557.979    
    197400   149.44809      297.13797     -2266.1545      6.5293766     -2259.6251     -27973.16     
    197450   154.99625      308.16901     -2266.4036      6.771775      -2259.6318     -28305.828    
    197500   137.37596      273.13574     -2265.6398      6.0019461     -2259.6378     -27333.701    
    197550   156.30045      310.76207     -2266.4876      6.8287556     -2259.6588     -27814.101    
    197600   147.16098      292.59066     -2266.0882      6.4294528     -2259.6587     -31594.556    
    197650   142.06631      282.46125     -2265.8682      6.2068671     -2259.6613     -27939.901    
    197700   143.98237      286.27082     -2265.958       6.2905794     -2259.6674     -26012.769    
    197750   153.27304      304.74288     -2266.3784      6.6964884     -2259.6819     -28998.465    
    197800   152.09859      302.40779     -2266.3348      6.6451767     -2259.6896     -28809.27     
    197850   159.77052      317.66139     -2266.6833      6.9803628     -2259.703      -29488.537    
    197900   149.61034      297.46055     -2266.242       6.5364649     -2259.7055     -28483.195    
    197950   160.35329      318.82007     -2266.7097      7.0058239     -2259.7038     -28792.225    
    198000   143.29927      284.91266     -2265.9706      6.2607348     -2259.7099     -28836.503    
    198050   155.96034      310.08586     -2266.5352      6.8138964     -2259.7213     -27948.503    
    198100   161.66716      321.43235     -2266.8053      7.0632268     -2259.7421     -23813.245    
    198150   139.48877      277.33649     -2265.8373      6.0942544     -2259.743      -27095.477    
    198200   152.65638      303.51681     -2266.4149      6.6695465     -2259.7454     -28750.59     
    198250   138.00924      274.39485     -2265.7747      6.0296141     -2259.745      -28255.029    
    198300   159.54662      317.21622     -2266.7296      6.9705805     -2259.7591     -28718.272    
    198350   145.2196       288.73073     -2266.1207      6.3446338     -2259.7761     -25655.675    
    198400   155.67093      309.51044     -2266.5833      6.8012519     -2259.782      -30176.25     
    198450   155.03618      308.24841     -2266.5625      6.7735199     -2259.789      -28123.431    
    198500   148.60394      295.45961     -2266.2927      6.4924958     -2259.8002     -27532.269    
    198550   139.60875      277.57505     -2265.9145      6.0994965     -2259.815      -24783.941    
    198600   153.18173      304.56132     -2266.5137      6.6924989     -2259.8212     -29675.093    
    198650   151.49335      301.20442     -2266.4438      6.6187336     -2259.8251     -29713.62     
    198700   137.41544      273.21423     -2265.851       6.0036708     -2259.8473     -28742.418    
    198750   151.26253      300.74549     -2266.4651      6.6086491     -2259.8565     -24159.031    
    198800   144.62089      287.54035     -2266.1812      6.3184763     -2259.8627     -26192.793    
    198850   153.10267      304.40414     -2266.5607      6.689045      -2259.8717     -28490.455    
    198900   143.46426      285.2407      -2266.1458      6.2679433     -2259.8779     -26135.377    
    198950   161.96837      322.03122     -2266.9719      7.0763864     -2259.8955     -24895.118    
    199000   153.58111      305.35538     -2266.6093      6.7099476     -2259.8994     -28823.596    
    199050   144.89171      288.07882     -2266.2369      6.3303087     -2259.9066     -29977.883    
    199100   152.41559      303.03805     -2266.5838      6.6590262     -2259.9248     -28564.915    
    199150   148.88522      296.01885     -2266.4321      6.5047847     -2259.9274     -26938.33     
    199200   148.82504      295.89919     -2266.4331      6.5021553     -2259.9309     -26456.138    
    199250   153.20442      304.60644     -2266.6387      6.6934904     -2259.9452     -27994.033    
    199300   150.72045      299.66771     -2266.5531      6.5849656     -2259.9681     -27377.186    
    199350   142.20463      282.73626     -2266.1871      6.21291       -2259.9742     -26387.486    
    199400   153.98107      306.15059     -2266.7156      6.7274219     -2259.9882     -30027.509    
    199450   142.01538      282.35999     -2266.2046      6.2046418     -2260          -31566.347    
    199500   147.25196      292.77154     -2266.4515      6.4334277     -2260.0181     -28374.8      
    199550   155.97727      310.11951     -2266.8537      6.8146359     -2260.0391     -26281.084    
    199600   152.43713      303.08088     -2266.7036      6.6599673     -2260.0436     -26556.064    
    199650   144.73608      287.76939     -2266.3727      6.3235092     -2260.0491     -30156.789    
    199700   144.04816      286.40163     -2266.3516      6.2934538     -2260.0582     -23816.524    
    199750   161.21784      320.539       -2267.126       7.043596      -2260.0824     -28132.746    
    199800   143.18794      284.69131     -2266.353       6.2558708     -2260.0971     -26492.587    
    199850   144.27998      286.86255     -2266.4179      6.3035822     -2260.1144     -27720.851    
    199900   147.5992       293.46195     -2266.5851      6.4485988     -2260.1365     -26133.327    
    199950   146.40543      291.08844     -2266.5471      6.3964427     -2260.1507     -27379.828    
    200000   142.53094      283.38505     -2266.3845      6.2271667     -2260.1573     -28364.473    
colvars: Saving collective variables state to "out.colvars.state".
colvars:   Writing TI PMF to file "out.metadynamics1.ti.pmf".
Loop time of 986.437 on 4 procs for 200000 steps with 339 atoms

Performance: 8.759 ns/day, 2.740 hours/ns, 202.750 timesteps/s, 68.732 katom-step/s
138.7% CPU use with 4 MPI tasks x 1 OpenMP threads

MPI task timing breakdown:
Section |  min time  |  avg time  |  max time  |%varavg| %total
---------------------------------------------------------------
Pair    | 597.96     | 791.91     | 951.96     | 469.1 | 80.28
Neigh   | 0.036599   | 0.95235    | 1.907      |  68.6 |  0.10
Comm    | 12.104     | 111.42     | 207.6      | 659.7 | 11.30
Output  | 5.1082     | 6.0122     | 7.0374     |  36.3 |  0.61
Modify  | 11.444     | 73.557     | 255.18     |1222.8 |  7.46
Other   |            | 2.584      |            |       |  0.26

Nlocal:          84.75 ave         148 max           1 min
Histogram: 1 0 0 0 0 0 2 0 0 1
Nghost:        1158.25 ave        1670 max         533 min
Histogram: 1 0 0 0 0 1 1 0 0 1
Neighs:              0 ave           0 max           0 min
Histogram: 4 0 0 0 0 0 0 0 0 0
FullNghs:      16729.5 ave       35179 max          48 min
Histogram: 1 0 0 1 0 1 0 0 0 1

Total # of neighbors = 66918
Ave neighs/atom = 197.39823
Neighbor list builds = 1591
Dangerous builds = 1
write_data final.data
System init for write_data ...
Generated 0 of 6 mixed pair_coeff terms from geometric mixing rule

CITE-CITE-CITE-CITE-CITE-CITE-CITE-CITE-CITE-CITE-CITE-CITE-CITE

Your simulation uses code contributions which should be cited:

- Colvars module (Fiorin2013, plus other works listed for specific features)


% Colvars module:
% Colvars-LAMMPS interface:
% Metadynamics colvar bias implementation:
% Optimal rotation via flexible fitting:
% distance colvar component:

@article{Fiorin2013,
  author = {Fiorin, Giacomo and Klein, Michael L.{} and H\'enin, J\'er\^ome},
  title = {Using collective variables to drive molecular dynamics simulations},
  journal = {Mol. Phys.},
  year = {2013},
  volume = {111},
  number = {22-23},
  pages = {3345--3362},
  publisher = {Taylor & Francis},
  doi = {10.1080/00268976.2013.813594},
  url = {https://doi.org/10.1080/00268976.2013.813594}
}


% Internal-forces free energy estimator:

@article{Henin2010,
  author = {H\'enin, J\'er\^ome and Fiorin, Giacomo and Chipot, Christophe and Klein, Michael L.},
  title = {Exploring multidimensional free energy landscapes using time-dependent biases on collective variables},
  journal = {J. Chem. Theory Comput.},
  year = {2010},
  volume = {6},
  pages = {35-47},
  number = {1},
  doi = {10.1021/ct9004432},
  pmid = {26614317},
  url = {https://doi.org/10.1021/ct9004432}
}


% LAMMPS engine:

@article{Thompson2022,
  title = {{LAMMPS} - a flexible simulation tool for particle-based materials modeling at the atomic, meso, and continuum scales},
  author = {Thompson, Aidan P. and Aktulga, H. Metin and Berger, Richard and Bolintineanu, Dan S. and Brown, W. Michael and Crozier, Paul S. and {in't Veld}, Pieter J. and Kohlmeyer, Axel and Moore, Stan G. and Nguyen, Trung Dac and Shan, Ray and Stevens, Mark J. and Tranchida, Julien and Trott, Christian and Plimpton, Steven J.},
  journal = {Comp. Phys. Comm.},
  volume = {271},
  pages = {108171},
  year = {2022},
  doi = {10.1016/j.cpc.2021.108171},
  url = {https://doi.org/10.1016/j.cpc.2021.108171}
}

CITE-CITE-CITE-CITE-CITE-CITE-CITE-CITE-CITE-CITE-CITE-CITE-CITE

Total wall time: 0:16:53
