 # File generated with Atomsk by baoergen22b on 2025-10-11 17:51:52
  
         339  atoms
           4  atom types
 
      0.000000000000      11.328000000000  xlo xhi
      0.000000000000      12.015000000000  ylo yhi
      0.000000000000      32.000000000000  zlo zhi
 
Masses
 
            1   55.84500000             # Fe
            2   15.99900000             # O
            3   1.00800000              # H
            4   35.45000000             # Cl
 
Atoms # atomic
 
         1    1        0.000000000000       0.000000000000       0.000000000000
         2    1        0.000000000000       2.002540050000       2.002880000000
         3    1        0.000000000000       0.000000000000       4.005120000000
         4    1        0.000000000000       2.002540050000       6.008000000000
         5    1        0.000000000000       0.000000000000       8.009920000000
         6    1        0.000000000000       2.002540050000      10.011840000000
         7    1        0.000000000000       0.000000000000      12.015040000000
         8    1        1.416000000000       2.002540050000       0.000000000000
         9    1        1.416000000000       0.000000000000       2.002880000000
        10    1        1.416000000000       2.002540050000       4.005120000000
        11    1        1.416000000000       0.000000000000       6.008000000000
        12    1        1.416000000000       2.002540050000       8.009920000000
        13    1        1.416000000000       0.000000000000      10.011840000000
        14    1        1.416000000000       2.002540050000      12.015040000000
        15    1        2.832000000000       0.000000000000       0.000000000000
        16    1        2.832000000000       2.002540050000       2.002880000000
        17    1        2.832000000000       0.000000000000       4.005120000000
        18    1        2.832000000000       2.002540050000       6.008000000000
        19    1        2.832000000000       0.000000000000       8.009920000000
        20    1        2.832000000000       2.002540050000      10.011840000000
        21    1        2.832000000000       0.000000000000      12.015040000000
        22    1        4.248000000000       2.002540050000       0.000000000000
        23    1        4.248000000000       0.000000000000       2.002880000000
        24    1        4.248000000000       2.002540050000       4.005120000000
        25    1        4.248000000000       0.000000000000       6.008000000000
        26    1        4.248000000000       2.002540050000       8.009920000000
        27    1        4.248000000000       0.000000000000      10.011840000000
        28    1        4.248000000000       2.002540050000      12.015040000000
        29    1        5.664000000000       0.000000000000       0.000000000000
        30    1        5.664000000000       2.002540050000       2.002880000000
        31    1        5.664000000000       0.000000000000       4.005120000000
        32    1        5.664000000000       2.002540050000       6.008000000000
        33    1        5.664000000000       0.000000000000       8.009920000000
        34    1        5.664000000000       2.002540050000      10.011840000000
        35    1        5.664000000000       0.000000000000      12.015040000000
        36    1        7.080000000000       2.002540050000       0.000000000000
        37    1        7.080000000000       0.000000000000       2.002880000000
        38    1        7.080000000000       2.002540050000       4.005120000000
        39    1        7.080000000000       0.000000000000       6.008000000000
        40    1        7.080000000000       2.002540050000       8.009920000000
        41    1        7.080000000000       0.000000000000      10.011840000000
        42    1        7.080000000000       2.002540050000      12.015040000000
        43    1        8.496000000000       0.000000000000       0.000000000000
        44    1        8.496000000000       2.002540050000       2.002880000000
        45    1        8.496000000000       0.000000000000       4.005120000000
        46    1        8.496000000000       2.002540050000       6.008000000000
        47    1        8.496000000000       0.000000000000       8.009920000000
        48    1        8.496000000000       2.002540050000      10.011840000000
        49    1        8.496000000000       0.000000000000      12.015040000000
        50    1        9.912000000000       2.002540050000       0.000000000000
        51    1        9.912000000000       0.000000000000       2.002880000000
        52    1        9.912000000000       2.002540050000       4.005120000000
        53    1        9.912000000000       0.000000000000       6.008000000000
        54    1        9.912000000000       2.002540050000       8.009920000000
        55    1        9.912000000000       0.000000000000      10.011840000000
        56    1        9.912000000000       2.002540050000      12.015040000000
        57    1        0.000000000000       4.004959950000       0.000000000000
        58    1        0.000000000000       6.007500000000       2.002880000000
        59    1        0.000000000000       4.004959950000       4.005120000000
        60    1        0.000000000000       6.007500000000       6.008000000000
        61    1        0.000000000000       4.004959950000       8.009920000000
        62    1        0.000000000000       6.007500000000      10.011840000000
        63    1        0.000000000000       4.004959950000      12.015040000000
        64    1        1.416000000000       6.007500000000       0.000000000000
        65    1        1.416000000000       4.004959950000       2.002880000000
        66    1        1.416000000000       6.007500000000       4.005120000000
        67    1        1.416000000000       4.004959950000       6.008000000000
        68    1        1.416000000000       6.007500000000       8.009920000000
        69    1        1.416000000000       4.004959950000      10.011840000000
        70    1        1.416000000000       6.007500000000      12.015040000000
        71    1        2.832000000000       4.004959950000       0.000000000000
        72    1        2.832000000000       6.007500000000       2.002880000000
        73    1        2.832000000000       4.004959950000       4.005120000000
        74    1        2.832000000000       6.007500000000       6.008000000000
        75    1        2.832000000000       4.004959950000       8.009920000000
        76    1        2.832000000000       6.007500000000      10.011840000000
        77    1        2.832000000000       4.004959950000      12.015040000000
        78    1        4.248000000000       6.007500000000       0.000000000000
        79    1        4.248000000000       4.004959950000       2.002880000000
        80    1        4.248000000000       6.007500000000       4.005120000000
        81    1        4.248000000000       4.004959950000       6.008000000000
        82    1        4.248000000000       6.007500000000       8.009920000000
        83    1        4.248000000000       4.004959950000      10.011840000000
        84    1        4.248000000000       6.007500000000      12.015040000000
        85    1        5.664000000000       4.004959950000       0.000000000000
        86    1        5.664000000000       6.007500000000       2.002880000000
        87    1        5.664000000000       4.004959950000       4.005120000000
        88    1        5.664000000000       6.007500000000       6.008000000000
        89    1        5.664000000000       4.004959950000       8.009920000000
        90    1        5.664000000000       6.007500000000      10.011840000000
        91    1        5.664000000000       4.004959950000      12.015040000000
        92    1        7.080000000000       6.007500000000       0.000000000000
        93    1        7.080000000000       4.004959950000       2.002880000000
        94    1        7.080000000000       6.007500000000       4.005120000000
        95    1        7.080000000000       4.004959950000       6.008000000000
        96    1        7.080000000000       6.007500000000       8.009920000000
        97    1        7.080000000000       4.004959950000      10.011840000000
        98    1        7.080000000000       6.007500000000      12.015040000000
        99    1        8.496000000000       4.004959950000       0.000000000000
       100    1        8.496000000000       6.007500000000       2.002880000000
       101    1        8.496000000000       4.004959950000       4.005120000000
       102    1        8.496000000000       6.007500000000       6.008000000000
       103    1        8.496000000000       4.004959950000       8.009920000000
       104    1        8.496000000000       6.007500000000      10.011840000000
       105    1        8.496000000000       4.004959950000      12.015040000000
       106    1        9.912000000000       6.007500000000       0.000000000000
       107    1        9.912000000000       4.004959950000       2.002880000000
       108    1        9.912000000000       6.007500000000       4.005120000000
       109    1        9.912000000000       4.004959950000       6.008000000000
       110    1        9.912000000000       6.007500000000       8.009920000000
       111    1        9.912000000000       4.004959950000      10.011840000000
       112    1        9.912000000000       6.007500000000      12.015040000000
       113    1        0.000000000000       8.010040050000       0.000000000000
       114    1        0.000000000000      10.012459950000       2.002880000000
       115    1        0.000000000000       8.010040050000       4.005120000000
       116    1        0.000000000000      10.012459950000       6.008000000000
       117    1        0.000000000000       8.010040050000       8.009920000000
       118    1        0.000000000000      10.012459950000      10.011840000000
       119    1        0.000000000000       8.010040050000      12.015040000000
       120    1        1.416000000000      10.012459950000       0.000000000000
       121    1        1.416000000000       8.010040050000       2.002880000000
       122    1        1.416000000000      10.012459950000       4.005120000000
       123    1        1.416000000000       8.010040050000       6.008000000000
       124    1        1.416000000000      10.012459950000       8.009920000000
       125    1        1.416000000000       8.010040050000      10.011840000000
       126    1        1.416000000000      10.012459950000      12.015040000000
       127    1        2.832000000000       8.010040050000       0.000000000000
       128    1        2.832000000000      10.012459950000       2.002880000000
       129    1        2.832000000000       8.010040050000       4.005120000000
       130    1        2.832000000000      10.012459950000       6.008000000000
       131    1        2.832000000000       8.010040050000       8.009920000000
       132    1        2.832000000000      10.012459950000      10.011840000000
       133    1        2.832000000000       8.010040050000      12.015040000000
       134    1        4.248000000000      10.012459950000       0.000000000000
       135    1        4.248000000000       8.010040050000       2.002880000000
       136    1        4.248000000000      10.012459950000       4.005120000000
       137    1        4.248000000000       8.010040050000       6.008000000000
       138    1        4.248000000000      10.012459950000       8.009920000000
       139    1        4.248000000000       8.010040050000      10.011840000000
       140    1        4.248000000000      10.012459950000      12.015040000000
       141    1        5.664000000000       8.010040050000       0.000000000000
       142    1        5.664000000000      10.012459950000       2.002880000000
       143    1        5.664000000000       8.010040050000       4.005120000000
       144    1        5.664000000000      10.012459950000       6.008000000000
       145    1        5.664000000000       8.010040050000       8.009920000000
       146    1        5.664000000000      10.012459950000      10.011840000000
       147    1        5.664000000000       8.010040050000      12.015040000000
       148    1        7.080000000000      10.012459950000       0.000000000000
       149    1        7.080000000000       8.010040050000       2.002880000000
       150    1        7.080000000000      10.012459950000       4.005120000000
       151    1        7.080000000000       8.010040050000       6.008000000000
       152    1        7.080000000000      10.012459950000       8.009920000000
       153    1        7.080000000000       8.010040050000      10.011840000000
       154    1        7.080000000000      10.012459950000      12.015040000000
       155    1        8.496000000000       8.010040050000       0.000000000000
       156    1        8.496000000000      10.012459950000       2.002880000000
       157    1        8.496000000000       8.010040050000       4.005120000000
       158    1        8.496000000000      10.012459950000       6.008000000000
       159    1        8.496000000000       8.010040050000       8.009920000000
       160    1        8.496000000000      10.012459950000      10.011840000000
       161    1        8.496000000000       8.010040050000      12.015040000000
       162    1        9.912000000000      10.012459950000       0.000000000000
       163    1        9.912000000000       8.010040050000       2.002880000000
       164    1        9.912000000000      10.012459950000       4.005120000000
       165    1        9.912000000000       8.010040050000       6.008000000000
       166    1        9.912000000000      10.012459950000       8.009920000000
       167    1        9.912000000000       8.010040050000      10.011840000000
       168    1        9.912000000000      10.012459950000      12.015040000000
       169    2        4.090200960000       3.284420400000      15.189440000000
       170    2        9.787505280000       6.542648100000      14.910400000000
       171    2        6.807108480000       2.588391450000      14.913280000000
       172    2        0.618622080000       5.056152300000      16.204480000000
       173    2        5.874134400000       0.131804550000      26.898560000000
       174    2        7.126897920000       1.793479050000      22.586240000000
       175    2        6.656446080000       4.906805850000      20.212160000000
       176    2        4.497782400000       5.857072200000      22.398400000000
       177    2        3.765767040000      11.187046350000      18.163200000000
       178    2        4.741221120000       4.632142950000      17.830400000000
       179    2        2.651884800000       9.312105600000      20.104640000000
       180    2        8.141660160000       4.216544100000      17.234560000000
       181    2        9.706510080000       3.175684650000      25.740160000000
       182    2        6.304711680000       2.516301450000      17.842240000000
       183    2        3.634928640000       4.424643900000      20.223360000000
       184    2        5.340019200000       7.944558300000      20.751360000000
       185    2        1.402066560000       5.462139150000      19.195840000000
       186    2        3.444844800000       4.524969150000      24.697280000000
       187    2        6.213634560000       9.488966400000      26.515840000000
       188    2        0.794885760000       8.159626800000      22.344320000000
       189    2        8.566346880000      10.072775250000      25.554560000000
       190    2        3.433630080000       0.044215200000      24.294080000000
       191    2        5.597957760000       6.811063200000      16.282560000000
       192    2       10.185684480000      11.252167650000      17.455680000000
       193    2        0.964465920000       9.131159700000      17.573440000000
       194    2        1.473886080000       2.651109750000      16.528640000000
       195    2        6.885498240000       7.866941400000      24.045760000000
       196    2        4.445333760000       2.177358300000      23.050560000000
       197    2        3.167648640000       1.653264000000      20.487360000000
       198    2       10.200977280000       5.586013800000      23.870400000000
       199    2        0.859342080000       2.745307350000      20.089280000000
       200    2        1.275872640000      11.414009700000      21.698560000000
       201    2        9.693822720000       6.947553600000      18.184640000000
       202    2        0.901255680000       7.080559650000      25.242240000000
       203    2        5.976199680000       8.666299350000      18.120320000000
       204    2        5.504728320000       0.597025350000      19.730560000000
       205    2        7.797402240000       6.451213950000      21.981440000000
       206    2        4.588972800000       9.191354850000      23.164480000000
       207    2        9.366443520000       9.867198600000      19.626240000000
       208    2        9.331100160000       0.677646000000      15.104640000000
       209    2        2.819539200000       6.210433350000      15.067200000000
       210    2        9.275819520000       9.086463900000      16.058880000000
       211    2        0.422874240000       9.493532100000      14.923200000000
       212    2       11.297640960000       3.177727200000      22.771520000000
       213    2       10.356624000000       2.503926000000      17.871040000000
       214    2       10.741776000000       6.496390350000      20.606080000000
       215    2        8.980951680000       3.392555400000      20.854720000000
       216    2        1.064265600000       0.002042550000      18.802240000000
       217    2        3.370419840000      11.916717300000      15.625920000000
       218    2        3.511453440000       9.081057150000      26.908480000000
       219    2        0.317863680000      10.114587450000      24.063360000000
       220    2        6.779354880000      11.124568350000      23.244160000000
       221    2        9.457973760000      10.674967050000      22.659520000000
       222    2        1.591923840000       2.449137600000      26.151680000000
       223    2        0.519955200000      11.952041400000      26.485120000000
       224    2        7.460960640000       5.825713050000      25.873280000000
       225    3        3.804735360000       3.791693700000      16.050240000000
       226    3        9.519144960000       7.512859350000      15.200320000000
       227    3        0.425479680000       2.959895250000      21.827520000000
       228    3        0.083940480000       2.329107750000      23.339520000000
       229    3        7.578318720000       2.690158500000      22.291520000000
       230    3        6.150424320000       2.084602500000      22.877440000000
       231    3        7.470249600000       4.299928200000      19.950080000000
       232    3        5.891579520000       4.232644200000      20.337280000000
       233    3        3.880519680000       5.607280350000      23.213120000000
       234    3        4.135852800000       5.417203050000      21.515520000000
       235    3        3.095149440000      10.728674100000      18.839680000000
       236    3        4.417127040000      11.807260650000      18.754560000000
       237    3        5.428604160000       3.825095400000      17.832000000000
       238    3        4.363772160000       4.676718600000      18.815360000000
       239    3        1.998259200000       8.700782400000      20.631680000000
       240    3        3.623940480000       8.898309000000      20.207040000000
       241    3        8.242366080000       4.653890100000      16.287680000000
       242    3        8.950592640000       3.520755450000      17.284160000000
       243    3       10.104236160000       3.901150350000      25.095040000000
       244    3        8.667732480000       3.189381750000      25.764800000000
       245    3        7.145362560000       3.122217900000      17.558080000000
       246    3        6.173873280000       2.110194450000      16.896960000000
       247    3        2.881276800000       4.983221250000      19.702720000000
       248    3        3.291010560000       3.411659250000      20.258560000000
       249    3        6.369168000000       7.813835100000      20.652160000000
       250    3        5.089104000000       7.078517100000      21.315520000000
       251    3        0.730769280000       5.947064550000      19.864640000000
       252    3        0.860248320000       5.608001250000      18.319360000000
       253    3        3.691455360000       4.747967550000      25.722240000000
       254    3        2.485249920000       4.143252600000      24.812480000000
       255    3        7.028344320000       9.880054650000      25.930240000000
       256    3        6.455600640000       8.471055600000      26.453120000000
       257    3        0.379261440000       8.941442850000      22.930560000000
       258    3        0.470565120000       7.380213750000      22.966400000000
       259    3        8.208382080000      10.750060800000      24.847680000000
       260    3        8.543917440000       9.143535150000      25.077440000000
       261    3        5.383405440000       6.024681450000      16.956480000000
       262    3        5.696624640000       7.682871600000      16.905600000000
       263    3        9.691557120000      11.880552150000      16.741440000000
       264    3       11.096795520000      11.720151900000      17.773440000000
       265    3        1.069363200000       8.531971650000      18.440640000000
       266    3        1.403425920000      10.064965500000      17.685440000000
       267    3        1.667255040000       2.484702000000      15.502400000000
       268    3        0.971149440000       3.581070750000      16.585280000000
       269    3        5.972914560000       8.301764250000      23.809600000000
       270    3        7.323891840000       7.388383950000      23.194560000000
       271    3        3.932968320000       1.518696000000      23.707200000000
       272    3        4.327749120000       3.163309200000      23.456640000000
       273    3        4.105380480000       1.247157000000      20.093440000000
       274    3        3.247964160000       1.745178750000      21.544640000000
       275    3       10.735092480000       4.854060000000      23.316800000000
       276    3       10.858907520000       6.037417350000      24.561280000000
       277    3        1.692856320000       2.247646050000      20.515520000000
       278    3        1.022691840000       3.680795250000      19.679360000000
       279    3        1.672465920000      10.496904750000      21.283520000000
       280    3        0.662008320000      11.030971500000      22.496640000000
       281    3        8.859968640000       6.381406800000      18.451520000000
       282    3        9.426255360000       7.320979800000      17.223680000000
       283    3        1.488952320000       6.784510050000      26.063360000000
       284    3        0.638446080000       8.042841000000      25.431360000000
       285    3        5.428264320000       9.546398100000      18.278720000000
       286    3        5.538032640000       7.988893650000      18.800640000000
       287    3        6.219978240000       1.237424850000      19.294080000000
       288    3        5.895091200000       0.307584000000      20.643520000000
       289    3        7.446460800000       5.741848350000      21.261440000000
       290    3        8.835047040000       6.277116600000      22.069120000000
       291    3        4.815872640000       8.803150200000      22.203200000000
       292    3        3.858996480000       8.543986650000      23.549120000000
       293    3        8.896331520000       9.170568900000      19.000320000000
       294    3        9.829985280000      10.501830900000      18.896320000000
       295    3        2.972693760000       7.202151450000      14.938240000000
       296    3        3.621674880000       5.805888300000      15.593600000000
       297    3        8.764133760000       9.593737200000      15.290240000000
       298    3        9.549730560000       9.816134850000      16.801280000000
       299    3        1.663063680000       0.870366600000      18.634560000000
       300    3        1.248005760000       9.145337400000      15.480640000000
       301    3       11.159099520000       2.239115400000      17.213440000000
       302    3       10.833192960000       2.740861800000      18.779520000000
       303    3       11.207583360000       7.256218950000      21.175680000000
       304    3        9.992315520000       7.044394500000      20.133440000000
       305    3        9.748763520000       3.362157450000      21.523520000000
       306    3        9.435997440000       2.851279650000      20.072320000000
       307    3        0.560169600000      10.629189900000      24.927360000000
       308    3        5.787248640000      10.787427450000      23.385280000000
       309    3        8.454086400000      11.067737400000      22.778560000000
       310    3        9.491164800000      10.431543150000      21.614080000000
       311    3       10.635066240000      10.361615850000      23.753600000000
       312    3        0.670957440000       2.961457200000      26.213440000000
       313    3        1.464597120000       1.433749950000      25.905600000000
       314    3        0.521427840000      10.899287100000      26.682560000000
       315    3        6.746503680000       5.859715500000      26.636160000000
       316    3        7.327290240000       6.586502850000      25.169280000000
       317    3       10.897536000000       6.542648100000      14.910400000000
       318    3        6.437136000000       3.328395300000      15.653440000000
       319    3        7.917139200000       2.588391450000      14.913280000000
       320    3        3.142160640000       9.823584150000      27.448320000000
       321    3        4.621484160000       9.081057150000      26.908480000000
       322    3        8.961127680000       1.417649850000      15.844480000000
       323    3       10.441130880000       0.677646000000      15.104640000000
       324    3        5.200231680000       3.284420400000      15.189440000000
       325    3        3.000447360000       0.641721150000      16.365760000000
       326    3        4.480450560000      11.916717300000      15.625920000000
       327    3        0.052901760000      10.233535950000      15.663040000000
       328    3        5.508013440000       0.891032400000      26.898560000000
       329    3        6.984165120000       0.131804550000      26.898560000000
       330    3        0.248649600000       5.796156150000      16.944640000000
       331    3        1.728652800000       5.056152300000      16.204480000000
       332    3        0.149982720000       0.677045250000      27.224320000000
       333    3        3.063657600000       0.784219050000      25.034240000000
       334    3        4.543660800000       0.044215200000      24.294080000000
       335    3        2.174296320000       0.002042550000      18.802240000000
       336    3        6.409382400000      11.864572200000      23.984640000000
       337    3        5.664000000000       6.007500000000      13.000000000000
       338    3        4.949543040000       6.804935550000      19.574720000000
       339    4        3.851520000000       8.001629550000      25.045120000000
