LAMMPS (2 Aug 2023)
OMP_NUM_THREADS environment is not set. Defaulting to 1 thread. (src/comm.cpp:98)
  using 1 OpenMP thread(s) per MPI task
Loaded 1 plugins from /work/home/baoergen22b/apprepo/deepmd/v2.2.9-dtk23.10/app/lib/deepmd_lmp
Reading data file ...
  orthogonal box = (0 0 0) to (11.328 12.015 32)
  1 by 1 by 4 MPI processor grid
  reading atoms ...
  338 atoms
  read_data CPU = 0.051 seconds
Summary of lammps deepmd module ...
  >>> Info of deepmd-kit:
  installed to:       /work/home/wys974137909/shangcheng/deepmd-kit/20240715/deepmd-kit_v2.2.9/install
  source:             v2.2.9
  source branch:      HEAD
  source commit:      be43748
  source commit at:   2024-02-04 13:44:12 +0800
  support model ver.: 1.1 
  build variant:      rocm
  build with tf inc:  /work/home/wys974137909/shangcheng/miniconda3/envs/deepmd-kit-v2.2.9/lib/python3.8/site-packages/tensorflow/include;/work/home/wys974137909/shangcheng/miniconda3/envs/deepmd-kit-v2.2.9/lib/python3.8/site-packages/tensorflow/include
  build with tf lib:  /work/home/wys974137909/shangcheng/miniconda3/envs/deepmd-kit-v2.2.9/lib/python3.8/site-packages/tensorflow/lib/libtensorflow_cc.so
  set tf intra_op_parallelism_threads: 0
  set tf inter_op_parallelism_threads: 0
  >>> Info of lammps module:
  use deepmd-kit at:  /work/home/wys974137909/shangcheng/deepmd-kit/20240715/deepmd-kit_v2.2.9/install
  source:             v2.2.9
  source branch:      HEAD
  source commit:      be43748
  source commit at:   2024-02-04 13:44:12 +0800
  build float prec:   double
  build with tf inc:  /work/home/wys974137909/shangcheng/miniconda3/envs/deepmd-kit-v2.2.9/lib/python3.8/site-packages/tensorflow/include;/work/home/wys974137909/shangcheng/miniconda3/envs/deepmd-kit-v2.2.9/lib/python3.8/site-packages/tensorflow/include
  build with tf lib:  /work/home/wys974137909/shangcheng/miniconda3/envs/deepmd-kit-v2.2.9/lib/python3.8/site-packages/tensorflow/lib/libtensorflow_cc.so
INVALID_ARGUMENT: Tensor spin_attr/ntypes_spin:0, specified in either feed_devices or fetch_devices was not found in the Graph
INVALID_ARGUMENT: Tensor spin_attr/ntypes_spin:0, specified in either feed_devices or fetch_devices was not found in the Graph
INVALID_ARGUMENT: Tensor spin_attr/ntypes_spin:0, specified in either feed_devices or fetch_devices was not found in the Graph
INVALID_ARGUMENT: Tensor spin_attr/ntypes_spin:0, specified in either feed_devices or fetch_devices was not found in the Graph
  >>> Info of model(s):
  using   1 model(s): graph-compress.pb 
  rcut in model:      6
  ntypes in model:    4
168 atoms in group fixed
170 atoms in group mobile

CITE-CITE-CITE-CITE-CITE-CITE-CITE-CITE-CITE-CITE-CITE-CITE-CITE

Your simulation uses code contributions which should be cited:
- GPU package (short-range, long-range and three-body potentials): doi:10.1016/j.cpc.2010.12.021, doi:10.1016/j.cpc.2011.10.012, doi:10.1016/j.cpc.2013.08.002, doi:10.1016/j.commatsci.2014.10.068, doi:10.1016/j.cpc.2016.10.020, doi:10.3233/APC200086
- USER-DEEPMD package:
The log file lists these citations in BibTeX format.

CITE-CITE-CITE-CITE-CITE-CITE-CITE-CITE-CITE-CITE-CITE-CITE-CITE

Generated 0 of 6 mixed pair_coeff terms from geometric mixing rule
Neighbor list info ...
  update: every = 1 steps, delay = 0 steps, check = yes
  max neighbors/atom: 2000, page size: 100000
  master list distance cutoff = 8
  ghost atom cutoff = 8
  binsize = 4, bins = 3 4 8
  1 neighbor lists, perpetual/occasional/extra = 1 0 0
  (1) pair deepmd, perpetual
      attributes: full, newton on
      pair build: full/bin/atomonly
      stencil: full/bin/3d
      bin: standard
Setting up Verlet run ...
  Unit style    : metal
  Current step  : 0
  Time step     : 0.0005
colvars: Creating proxy instance
colvars: ----------------------------------------------------------------------
colvars: Initializing the collective variables module, version 2023-05-01.
colvars: Please cite Fiorin et al, Mol Phys 2013:
colvars:   https://doi.org/10.1080/00268976.2013.813594
colvars: as well as all other papers listed below for individual features used.
colvars: This version was built with the C++11 standard or higher.
colvars: Using LAMMPS interface, version "2023-04-12".
colvars: ----------------------------------------------------------------------
colvars: Reading new configuration from file "pmf.in":
colvars: # units = "" [default]
colvars: # smp = on [default]
colvars: # colvarsTrajFrequency = 100 [default]
colvars: # colvarsRestartFrequency = 0 [default]
colvars: # scriptedColvarForces = off [default]
colvars: # scriptingAfterBiases = off [default]
colvars: ----------------------------------------------------------------------
colvars:   Initializing a new collective variable.
colvars:   # name = "d"
colvars:   Initializing a new "distanceZ" component.
colvars:     # name = "" [default]
colvars:     # componentCoeff = 1 [default]
colvars:     # componentExp = 1 [default]
colvars:     # period = 0 [default]
colvars:     # wrapAround = 0 [default]
colvars:     # forceNoPBC = off [default]
colvars:     # scalable = on [default]
colvars:       Initializing atom group "main".
colvars:       # name = "" [default]
colvars:       # centerToOrigin = off [default]
colvars:       # centerToReference = off [default]
colvars:       # rotateToReference = off [default]
colvars:       # atomsOfGroup = "" [default]
colvars:       # indexGroup = "" [default]
colvars:       # psfSegID =  [default]
colvars:       # atomsFile = "" [default]
colvars:       # dummyAtom = ( 0 , 0 , 0 ) [default]
colvars:       # enableFitGradients = on [default]
colvars:       # printAtomIDs = off [default]
colvars:       Atom group "main" defined with 1 atoms requested.
colvars:       Initializing atom group "ref".
colvars:       # name = "" [default]
colvars:       # centerToOrigin = off [default]
colvars:       # centerToReference = off [default]
colvars:       # rotateToReference = off [default]
colvars:       # atomsOfGroup = "" [default]
colvars:       # indexGroup = "" [default]
colvars:       # psfSegID =  [default]
colvars:       # atomsFile = "" [default]
colvars:       # dummyAtom = ( 0 , 0 , 0 ) [default]
colvars:       # enableFitGradients = on [default]
colvars:       # printAtomIDs = off [default]
colvars:       Atom group "ref" defined with 23 atoms requested.
colvars:     # axis = ( 0 , 0 , 1 ) [default]
colvars:     # oneSiteSystemForce = off [default]
colvars:     # oneSiteTotalForce = off [default]
colvars:   All components initialized.
colvars:   # timeStepFactor = 1 [default]
colvars:   # width = 0.05
colvars:   # lowerBoundary = 0.8
colvars:   # upperBoundary = 6.5
colvars:   # hardLowerBoundary = on
colvars:   # hardUpperBoundary = off [default]
colvars:   # expandBoundaries = off [default]
colvars:   # extendedLagrangian = off [default]
colvars:   # outputValue = on [default]
colvars:   # outputVelocity = off [default]
colvars:   # outputTotalForce = on
colvars:   # outputAppliedForce = on
colvars:   # subtractAppliedForce = off [default]
colvars:   # runAve = off [default]
colvars:   # corrFunc = off [default]
colvars: ----------------------------------------------------------------------
colvars: Collective variables initialized, 1 in total.
colvars: ----------------------------------------------------------------------
colvars:   Initializing a new "metadynamics" instance.
colvars:   # name = "metadynamics1" [default]
colvars:   # colvars = { d }
colvars:   # stepZeroData = off [default]
colvars:   # outputEnergy = off [default]
colvars:   # outputFreq = 0 [default]
colvars:   # timeStepFactor = 1 [default]
colvars:   # writeTISamples = on
colvars:   # writeTIPMF = on
colvars:   # hillWeight = 0.2
colvars:   # newHillFrequency = 300
colvars:   # gaussianSigmas =  [default]
colvars:   # hillWidth = 1
colvars:   Half-widths of the Gaussian hills (sigma's):
colvars:   d: 0.025
colvars:   # multipleReplicas = off [default]
colvars:   # useGrids = on [default]
colvars:   # gridsUpdateFrequency = 300 [default]
colvars:   # rebinGrids = off [default]
colvars:   # writeFreeEnergyFile = on [default]
colvars:   # keepHills = off [default]
colvars:   # keepFreeEnergyFiles = off [default]
colvars:   # writeHillsTrajectory = off [default]
colvars:   # wellTempered = off [default]
colvars:   # biasTemperature = 800
colvars:   # ebMeta = off [default]
colvars: ----------------------------------------------------------------------
colvars: Collective variables biases initialized, 1 in total.
colvars: ----------------------------------------------------------------------
colvars: Collective variables module (re)initialized.
colvars: ----------------------------------------------------------------------
colvars: Re-initialized atom group for variable "d":0/0. 1 atoms: total mass = 1.008, total charge = 4.64947e-310.
colvars: Re-initialized atom group for variable "d":0/1. 23 atoms: total mass = 1284.44, total charge = 6.27465e-309.
colvars: The restart output state file will be "rest.colvars.state".
colvars: The final output state file will be "out.colvars.state".
Per MPI rank memory allocation (min/avg/max) = 3.129 | 3.153 | 3.169 Mbytes
   Step          Temp         c_mTemp         PotEng         KinEng         TotEng         Press     
         0   149.51736      298.15        -2331.8522      6.5130762     -2325.3391     -18112.572    
        50   141.4112       281.98565     -2331.4961      6.1599665     -2325.3362     -17618.644    
       100   147.6388       294.40399     -2331.7733      6.4312447     -2325.342      -15114.222    
       150   147.20998      293.54889     -2331.7498      6.4125651     -2325.3372     -15322.234    
       200   158.84992      316.75991     -2332.2612      6.9196089     -2325.3416     -20212.131    
       250   150.57158      300.25221     -2331.8984      6.5589988     -2325.3394     -18041.706    
       300   157.97762      315.02046     -2332.206       6.8816108     -2325.3244     -18871.392    
       350   150.75891      300.62575     -2331.6423      6.5671587     -2325.0751     -16465.054    
       400   161.93804      322.91787     -2331.9961      7.0541294     -2324.942      -17982.031    
       450   147.55355      294.234       -2331.3869      6.4275314     -2324.9593     -17591.649    
       500   144.57403      288.29259     -2331.3844      6.2977415     -2325.0866     -17357.772    
       550   142.0888       283.33683     -2331.327       6.189483      -2325.1375     -16446.223    
       600   152.50073      304.09908     -2331.4037      6.6430336     -2324.7606     -18008.455    
       650   164.71883      328.46299     -2331.9322      7.1752624     -2324.7569     -16572.52     
       700   148.15088      295.42512     -2331.1986      6.4535512     -2324.745      -12017.738    
       750   148.42292      295.96759     -2331.487       6.4654015     -2325.0216     -19304.265    
       800   148.01227      295.14872     -2331.29        6.4475134     -2324.8425     -16744.494    
       850   144.53879      288.22232     -2331.1015      6.2962063     -2324.8053     -17815.437    
       900   137.10651      273.40174     -2330.7782      5.9724513     -2324.8058     -17442.311    
       950   141.08021      281.32562     -2330.7477      6.1455483     -2324.6022     -16350.881    
      1000   165.91691      330.85207     -2331.9602      7.2274518     -2324.7327     -17844.958    
      1050   170.37455      339.74097     -2331.9841      7.4216295     -2324.5624     -16843.946    
      1100   163.74         326.51113     -2331.7184      7.1326241     -2324.5858     -16234.652    
      1150   162.1055       323.2518      -2331.766       7.0614241     -2324.7046     -17303.373    
      1200   141.77707      282.71523     -2331.1318      6.1759042     -2324.9559     -14247.814    
      1250   159.93339      318.92044     -2331.7361      6.9668056     -2324.7693     -16780.12     
      1300   160.26197      319.57563     -2331.6742      6.9811184     -2324.693      -15413.109    
      1350   151.64922      302.4011      -2331.2791      6.6059413     -2324.6732     -17401.885    
      1400   157.72791      314.52252     -2331.5028      6.8707332     -2324.6321     -18650.616    
      1450   157.53059      314.12905     -2331.5386      6.862138      -2324.6765     -15854.274    
      1500   162.65372      324.34499     -2331.7121      7.0853047     -2324.6268     -13278.939    
      1550   156.51983      312.11351     -2331.185       6.8181085     -2324.3669     -14231.02     
      1600   152.44159      303.98116     -2330.7657      6.6404577     -2324.1252     -17413.915    
      1650   155.78565      310.64949     -2330.7227      6.786127      -2323.9366     -15359.375    
      1700   180.45281      359.83784     -2331.6071      7.8606449     -2323.7465     -15749.852    
      1750   161.41115      321.86719     -2330.9174      7.0311774     -2323.8862     -16150.773    
      1800   181.08272      361.09395     -2331.7242      7.8880846     -2323.8361     -17675.806    
      1850   180.15946      359.25288     -2330.9672      7.8478665     -2323.1193     -13061.477    
      1900   186.99327      372.88006     -2329.88        8.1455517     -2321.7344     -17885.457    
      1950   207.82726      414.42478     -2330.8865      9.0530946     -2321.8334     -15293.335    
      2000   188.05142      374.99011     -2330.0322      8.1916456     -2321.8405     -12262.963    
      2050   195.98155      390.80344     -2330.4113      8.5370872     -2321.8742     -18586.112    
      2100   194.57387      387.99642     -2330.3821      8.475768      -2321.9064     -21060.926    
      2150   193.83154      386.51614     -2330.24        8.4434314     -2321.7966     -20483.637    
      2200   187.92655      374.74111     -2330.0162      8.1862063     -2321.83       -20089.806    
      2250   191.00056      380.87094     -2330.2049      8.3201122     -2321.8848     -21947.524    
      2300   204.29498      407.38111     -2330.8264      8.8992259     -2321.9272     -23289.694    
      2350   171.36295      341.71192     -2329.4505      7.4646848     -2321.9858     -23550.295    
      2400   202.65321      404.1073      -2330.8638      8.8277096     -2322.0361     -23707.412    
      2450   182.41216      363.74496     -2329.8742      7.9459957     -2321.9282     -20109.768    
      2500   164.07445      327.17805     -2329.1126      7.1471928     -2321.9654     -25389.824    
      2550   211.02185      420.79504     -2331.2439      9.1922528     -2322.0516     -20876.014    
      2600   154.3754       307.83733     -2328.8153      6.7246957     -2322.0906     -21521.724    
      2650   178.36218      355.66897     -2329.9317      7.7695759     -2322.1621     -21581.315    
      2700   176.94309      352.83918     -2329.9327      7.7077595     -2322.2249     -21479.307    
      2750   170.61522      340.22088     -2329.5188      7.432113      -2322.0867     -18780.244    
      2800   171.76021      342.5041      -2329.6432      7.4819898     -2322.1612     -15980.626    
      2850   184.15245      367.21525     -2330.2124      8.021804      -2322.1906     -17682.056    
      2900   189.37611      377.63164     -2330.5221      8.2493499     -2322.2728     -15764.908    
      2950   172.15198      343.2853      -2329.8223      7.4990552     -2322.3232     -15935.904    
      3000   177.3603       353.67114     -2330.1099      7.7259334     -2322.3839     -15589.369    
      3050   169.43607      337.86956     -2329.8432      7.3807485     -2322.4624     -16057.154    
      3100   183.95271      366.81695     -2330.5346      8.0131032     -2322.5215     -17648.985    
      3150   179.50568      357.9492      -2329.8958      7.8193877     -2322.0764     -18484.718    
      3200   173.91339      346.79771     -2329.5902      7.5757838     -2322.0144     -14948.139    
      3250   188.42769      375.74043     -2329.807       8.2080364     -2321.5989     -16052.472    
      3300   169.49687      337.9908      -2328.8403      7.3833969     -2321.4569     -15916.582    
      3350   209.76036      418.27954     -2330.4375      9.1373017     -2321.3002     -15743.199    
      3400   204.28268      407.35658     -2329.9272      8.89869       -2321.0285     -16987.236    
      3450   200.81711      400.44595     -2329.8574      8.7477275     -2321.1097     -14757.219    
      3500   186.92612      372.74616     -2329.2362      8.1426267     -2321.0936     -18676.497    
      3550   212.56782      423.87784     -2329.9006      9.2595964     -2320.641      -15632.536    
      3600   205.59856      409.98057     -2329.823       8.9560109     -2320.8669     -16078.452    
      3650   185.03461      368.97433     -2329.0824      8.0602312     -2321.0222     -15798.636    
      3700   201.89078      402.58694     -2329.8179      8.7944973     -2321.0234     -18469.183    
      3750   199.92659      398.67019     -2329.497       8.7089362     -2320.7881     -15122.008    
      3800   194.17834      387.20769     -2329.201       8.4585383     -2320.7425     -13569.812    
      3850   205.41622      409.61696     -2329.4625      8.948068      -2320.5144     -13574.203    
      3900   200.56692      399.94705     -2329.3575      8.7368292     -2320.6206     -16290.993    
      3950   202.13495      403.07384     -2329.3414      8.8051337     -2320.5363     -16199.965    
      4000   207.02061      412.81626     -2329.414       9.0179565     -2320.3961     -12091.833    
      4050   197.11083      393.05533     -2328.9906      8.5862797     -2320.4044     -13888.459    
      4100   204.82159      408.43122     -2329.5604      8.9221655     -2320.6382     -16382.817    
      4150   197.55145      393.93397     -2329.3022      8.6054735     -2320.6967     -14336.272    
      4200   210.05864      418.87433     -2329.6283      9.1502948     -2320.478      -13348.538    
      4250   232.2614       463.14847     -2329.7839      10.117462     -2319.6665     -17480.712    
      4300   204.4307       407.65176     -2329.6415      8.9051381     -2320.7363     -15211.962    
      4350   206.67612      412.12931     -2329.0503      9.00295       -2320.0474     -13239.176    
      4400   204.16558      407.12308     -2329.2518      8.8935891     -2320.3583     -16799.864    
      4450   194.65037      388.14897     -2329.0991      8.4791004     -2320.62       -11154.023    
      4500   196.4513       391.74017     -2329.3435      8.5575502     -2320.786      -14317.907    
      4550   177.84546      354.63858     -2327.9425      7.7470672     -2320.1954     -12334.497    
      4600   206.10581      410.99205     -2328.6236      8.9781068     -2319.6455     -15675.052    
      4650   217.95371      434.61776     -2328.8782      9.4942095     -2319.384      -13422.531    
      4700   223.70318      446.08267     -2328.4689      9.7446602     -2318.7242     -18152.11     
      4750   235.26299      469.13389     -2329.5756      10.248213     -2319.3274     -17989.555    
      4800   213.11238      424.96374     -2328.7699      9.2833178     -2319.4866     -12578.288    
      4850   200.22011      399.25549     -2327.8103      8.721722      -2319.0886     -16014.03     
      4900   220.52019      439.73553     -2329.0845      9.6060071     -2319.4785     -16465.652    
      4950   200.04117      398.89867     -2328.1799      8.7139273     -2319.466      -14218.754    
      5000   177.92625      354.79969     -2327.0541      7.7505866     -2319.3035     -17154.709    
      5050   212.09549      422.93599     -2328.8662      9.2390216     -2319.6271     -18430.304    
      5100   214.60333      427.93681     -2329.1908      9.3482644     -2319.8426     -17071.311    
      5150   187.60032      374.09058     -2327.7191      8.1719955     -2319.5471     -17848.698    
      5200   224.08866      446.85135     -2328.6636      9.761452      -2318.9022     -16787.505    
      5250   242.48986      483.54487     -2329.1739      10.563021     -2318.6108     -14872.959    
      5300   222.59152      443.86593     -2328.4128      9.6962354     -2318.7166     -19471.995    
      5350   230.07621      458.79102     -2328.795       10.022273     -2318.7728     -15378.023    
      5400   204.82622      408.44045     -2328.4402      8.9223671     -2319.5178     -19229.943    
      5450   219.83694      438.37307     -2329.2313      9.5762441     -2319.655      -17352.546    
      5500   222.85483      444.39099     -2329.0445      9.7077054     -2319.3368     -15881.876    
      5550   214.50002      427.73081     -2328.2968      9.3437643     -2318.953      -19058.168    
      5600   180.0537       359.042       -2327.3632      7.8432598     -2319.5199     -15158.829    
      5650   188.30906      375.50386     -2328.0012      8.2028685     -2319.7983     -17941.686    
      5700   197.56362      393.95822     -2328.347       8.6060034     -2319.741      -16767.112    
      5750   181.95367      362.83069     -2327.2209      7.9260236     -2319.2949     -16160.381    
      5800   207.231        413.23579     -2328.5584      9.0271212     -2319.5312     -16725.288    
      5850   197.90525      394.63946     -2328.0403      8.620885      -2319.4194     -17913.682    
      5900   235.02925      468.6678      -2329.46        10.238031     -2319.222      -15069.357    
      5950   219.61207      437.92465     -2328.4423      9.5664485     -2318.8759     -15700.822    
      6000   230.59511      459.82574     -2329.1397      10.044877     -2319.0949     -13870.688    
      6050   227.50529      453.66439     -2328.7955      9.9102825     -2318.8853     -20248.701    
      6100   203.58855      405.97244     -2328.0187      8.8684535     -2319.1503     -16529.679    
      6150   190.48615      379.84516     -2327.5923      8.2977039     -2319.2946     -15765.742    
      6200   214.80608      428.34112     -2328.6059      9.3570966     -2319.2488     -16344.913    
      6250   209.73361      418.2262      -2327.4108      9.1361365     -2318.2747     -14555.735    
      6300   190.7727       380.41657     -2326.6654      8.3101865     -2318.3552     -16896.873    
      6350   198.23188      395.29078     -2327.0757      8.6351132     -2318.4406     -14855.275    
      6400   197.57843      393.98775     -2327.1165      8.6066484     -2318.5099     -16453.823    
      6450   215.90872      430.53987     -2328.0195      9.4051282     -2318.6144     -19543.483    
      6500   198.23606      395.29912     -2327.3144      8.6352953     -2318.6791     -15124.343    
      6550   258.5716       515.61318     -2326.9162      11.263552     -2315.6526     -12501.331    
      6600   235.07366      468.75634     -2325.9821      10.239966     -2315.7421     -18238.622    
      6650   257.48521      513.44684     -2326.9725      11.216228     -2315.7562     -16314.543    
      6700   252.64761      503.80027     -2326.9284      11.005499     -2315.9229     -13733.988    
      6750   233.78755      466.19174     -2326.2558      10.183942     -2316.0718     -14861.175    
      6800   217.00769      432.73131     -2325.6325      9.453         -2316.1795     -15877.909    
      6850   247.10274      492.74333     -2327.0497      10.763961     -2316.2857     -12396.817    
      6900   254.05144      506.59961     -2327.4525      11.066651     -2316.3859     -14101.347    
      6950   230.26869      459.17485     -2326.3882      10.030658     -2316.3575     -13996.242    
      7000   229.11581      456.8759      -2326.4526      9.9804379     -2316.4721     -15620.726    
      7050   226.54417      451.74784     -2326.4556      9.8684155     -2316.5872     -16584.602    
      7100   230.83576      460.30562     -2326.722       10.05536      -2316.6667     -14211.444    
      7150   231.9812       462.58974     -2326.9043      10.105256     -2316.7991     -14480.084    
      7200   231.7404       462.10955     -2327.0664      10.094767     -2316.9716     -18567.839    
      7250   235.31589      469.23938     -2327.1609      10.250518     -2316.9103     -14148.335    
      7300   237.84156      474.27578     -2327.3878      10.360538     -2317.0273     -16023.529    
      7350   223.41852      445.51503     -2326.8741      9.73226       -2317.1418     -12576.036    
      7400   231.01846      460.66994     -2327.3159      10.063319     -2317.2525     -19667.138    
      7450   245.10691      488.76348     -2328.063       10.677021     -2317.386      -18898.921    
      7500   231.95157      462.53065     -2327.5747      10.103966     -2317.4708     -16103.385    
      7550   218.5441       435.79503     -2327.0341      9.519927      -2317.5141     -17745.4      
      7600   208.87267      416.50941     -2326.6998      9.0986333     -2317.6012     -14820.1      
      7650   227.6339       453.92086     -2327.6713      9.915885      -2317.7555     -18155.324    
      7700   229.60467      457.85072     -2327.954       10.001733     -2317.9522     -15250.831    
      7750   219.9807       438.65974     -2327.4376      9.5825065     -2317.8551     -18117.486    
      7800   205.04522      408.87716     -2326.8323      8.9319071     -2317.9004     -14376.238    
      7850   197.55344      393.93792     -2326.3026      8.6055599     -2317.697      -14050.207    
      7900   195.71174      390.26542     -2326.325       8.5253343     -2317.7997     -15067.048    
      7950   211.75027      422.24758     -2327.1317      9.2239835     -2317.9077     -16260.077    
      8000   189.54508      377.9686      -2326.2524      8.2567106     -2317.9957     -12813.885    
      8050   215.66396      430.05181     -2327.4964      9.3944666     -2318.1019     -15950.718    
      8100   238.4519       475.49284     -2328.601       10.387124     -2318.2139     -18356.036    
      8150   212.31584      423.37537     -2327.3807      9.2486199     -2318.1321     -15990.632    
      8200   209.08573      416.93426     -2327.407       9.1079142     -2318.2991     -18410.753    
      8250   221.11816      440.92794     -2327.9181      9.6320551     -2318.286      -17414.372    
      8300   218.50315      435.71338     -2327.8501      9.5181432     -2318.3319     -17827.006    
      8350   214.42152      427.57427     -2327.7771      9.3403447     -2318.4367     -15815.5      
      8400   230.83171      460.29756     -2328.4918      10.055184     -2318.4366     -13499.369    
      8450   240.08378      478.74695     -2328.7514      10.45821      -2318.2931     -17205.077    
      8500   215.2779       429.28198     -2327.8117      9.3776495     -2318.4341     -13457.334    
      8550   224.63481      447.94041     -2328.3301      9.7852425     -2318.5449     -14408.685    
      8600   218.32264      435.35343     -2328.2137      9.5102802     -2318.7034     -15412.785    
      8650   217.30069      433.31557     -2328.1784      9.4657633     -2318.7126     -19898.233    
      8700   209.53538      417.83091     -2327.8914      9.1275014     -2318.7639     -17007.143    
      8750   201.48489      401.77757     -2327.5312      8.7768167     -2318.7544     -15604.678    
      8800   201.55669      401.92073     -2327.6237      8.779944      -2318.8437     -20544.671    
      8850   197.95261      394.7339      -2327.5676      8.6229481     -2318.9446     -16272.987    
      8900   187.26841      373.42872     -2327.1833      8.1575371     -2319.0257     -16757.671    
      8950   210.70971      420.17261     -2328.3193      9.1786557     -2319.1406     -19078.087    
      9000   200.85334      400.5182      -2327.9671      8.7493058     -2319.2178     -19250.739    
      9050   220.73109      440.15607     -2328.7859      9.6151937     -2319.1707     -16224.714    
      9100   213.34859      425.43476     -2328.4316      9.2936073     -2319.138      -14917.439    
      9150   210.75818      420.26927     -2328.5238      9.1807672     -2319.343      -16680.5      
      9200   208.19875      415.16556     -2328.1234      9.0692769     -2319.0542     -17152.516    
      9250   218.04181      434.79343     -2328.7593      9.4980471     -2319.2612     -18113.432    
      9300   208.39145      415.54981     -2328.3538      9.0776708     -2319.2762     -16387.314    
      9350   229.77484      458.19006     -2328.9301      10.009146     -2318.921      -18367.081    
      9400   218.70396      436.11381     -2328.5779      9.5268907     -2319.051      -16540.263    
      9450   198.60239      396.02961     -2327.8045      8.6512529     -2319.1532     -19792.369    
      9500   200.23642      399.28801     -2327.9889      8.7224324     -2319.2664     -16260.97     
      9550   216.64832      432.0147      -2328.8531      9.4373458     -2319.4157     -16285.446    
      9600   210.96404      420.67978     -2328.6661      9.1897349     -2319.4764     -19608.44     
      9650   203.93848      406.67023     -2328.4932      8.8836967     -2319.6095     -15956.49     
      9700   209.96694      418.69148     -2328.9942      9.1463005     -2319.8479     -15347.526    
      9750   196.1461       391.13158     -2328.404       8.5442555     -2319.8597     -19222.287    
      9800   197.08222      392.99827     -2328.5329      8.5850333     -2319.9478     -20061.088    
      9850   209.03012      416.82338     -2329.3163      9.1054919     -2320.2109     -17915.617    
      9900   204.00871      406.81026     -2329.111       8.8867557     -2320.2243     -16737.623    
      9950   209.39348      417.54795     -2329.3532      9.1213201     -2320.2319     -17063.277    
     10000   197.67606      394.18244     -2328.9024      8.6109014     -2320.2915     -14840.027    
     10050   214.1046       426.94231     -2329.7026      9.3265397     -2320.3761     -16543.78     
     10100   190.75651      380.38429     -2328.7358      8.3094813     -2320.4263     -13266.334    
     10150   202.74065      404.28165     -2329.3066      8.8315183     -2320.475      -19014.499    
     10200   197.11847      393.07056     -2329.1219      8.5866124     -2320.5353     -16188.514    
     10250   199.30999      397.44063     -2329.1959      8.6820765     -2320.5138     -17747.842    
     10300   199.80008      398.4179      -2329.287       8.703425      -2320.5835     -16413.154    
     10350   196.99841      392.83116     -2329.281       8.5813827     -2320.6996     -16484.9      
     10400   166.25791      331.53205     -2328.013       7.2423059     -2320.7707     -16041.027    
     10450   188.27736      375.44066     -2329.0034      8.2014878     -2320.802      -15639.308    
     10500   186.16709      371.23261     -2329.0872      8.1095631     -2320.9777     -16869.805    
     10550   189.91703      378.71028     -2329.0625      8.2729127     -2320.7896     -16794.403    
     10600   178.03313      355.0128      -2328.7371      7.755242      -2320.9819     -16879.441    
     10650   195.94247      390.72551     -2329.5757      8.5353849     -2321.0403     -14897.151    
     10700   185.16842      369.24118     -2329.2455      8.0660604     -2321.1794     -15846.315    
     10750   191.94391      382.75205     -2329.479       8.361205      -2321.1178     -16000.735    
     10800   183.3971       365.709       -2329.0941      7.9889001     -2321.1052     -18662.779    
     10850   191.96303      382.79019     -2329.4953      8.3620382     -2321.1333     -12891.849    
     10900   190.4865       379.84587     -2329.3635      8.2977195     -2321.0657     -18289.142    
     10950   197.41742      393.66669     -2329.5624      8.599635      -2320.9628     -16688.608    
     11000   193.71503      386.28381     -2329.3739      8.4383561     -2320.9356     -16835.498    
     11050   178.41144      355.76718     -2328.9724      7.7717215     -2321.2007     -18465.945    
     11100   189.15651      377.19376     -2329.4105      8.2397843     -2321.1707     -20274.948    
     11150   182.3517       363.6244      -2329.0256      7.943362      -2321.0822     -16588.838    
     11200   184.47252      367.85349     -2329.3481      8.0357465     -2321.3124     -20388.9      
     11250   201.11593      401.04183     -2329.8124      8.7607445     -2321.0516     -15389.156    
     11300   198.2067       395.24059     -2329.8254      8.6340166     -2321.1913     -19925.385    
     11350   181.71401      362.3528      -2329.1942      7.915584      -2321.2787     -18107.212    
     11400   184.18675      367.28364     -2329.3953      8.0232981     -2321.372      -17449.902    
     11450   199.45468      397.72915     -2329.9475      8.6883791     -2321.2591     -16026.273    
     11500   193.7385       386.33062     -2329.5897      8.4393786     -2321.1503     -18069.573    
     11550   192.70931      384.27833     -2329.6191      8.3945465     -2321.2245     -15359.824    
     11600   207.294        413.3614      -2330.4031      9.0298652     -2321.3732     -16905.49     
     11650   182.90024      364.71823     -2329.3564      7.9672569     -2321.3892     -15700.66     
     11700   187.5097       373.90988     -2329.6276      8.1680481     -2321.4595     -16555.142    
     11750   194.27163      387.39373     -2329.8262      8.4626023     -2321.3636     -16108.865    
     11800   189.76813      378.41338     -2329.745       8.2664268     -2321.4785     -18052.624    
     11850   203.24751      405.29237     -2330.4629      8.8535974     -2321.6093     -17262.31     
     11900   182.04133      363.00549     -2329.6519      7.929842      -2321.7221     -15689.974    
     11950   190.06964      379.01461     -2330.1302      8.2795608     -2321.8507     -16998.619    
     12000   178.76742      356.47704     -2329.7278      7.7872282     -2321.9406     -19305.019    
     12050   181.20008      361.32797     -2329.9784      7.8931966     -2322.0852     -14994.744    
     12100   159.40853      317.87382     -2329.206       6.9439423     -2322.262      -20074.088    
     12150   184.18684      367.28381     -2329.8319      8.0233019     -2321.8086     -18306.8      
     12200   183.07036      365.05746     -2329.8622      7.9746673     -2321.8876     -16236.322    
     12250   178.39612      355.73664     -2329.7523      7.7710542     -2321.9813     -20659.39     
     12300   177.54796      354.04534     -2329.7118      7.7341079     -2321.9777     -16673.287    
     12350   174.68166      348.3297      -2329.6311      7.6092499     -2322.0218     -18070.706    
     12400   210.73835      420.22973     -2331.058       9.1799036     -2321.8781     -18668.408    
     12450   178.91584      356.773       -2329.7255      7.7936936     -2321.9318     -15614.164    
     12500   195.40951      389.66275     -2330.4983      8.5121689     -2321.9862     -16167.926    
     12550   183.20685      365.32964     -2330.033       7.980613      -2322.0524     -20602.558    
     12600   182.93681      364.79116     -2329.9613      7.9688499     -2321.9925     -16094.59     
     12650   166.40903      331.83338     -2329.3503      7.2488884     -2322.1014     -17023.642    
     12700   182.47738      363.87501     -2330.2099      7.9488367     -2322.261      -19218.994    
     12750   199.17325      397.16797     -2330.5002      8.6761202     -2321.824      -15872.097    
     12800   184.00817      366.92754     -2329.8666      8.0155192     -2321.8511     -19979.11     
     12850   195.32306      389.49036     -2330.1582      8.5084031     -2321.6498     -13063.961    
     12900   193.37541      385.60659     -2330.1023      8.4235622     -2321.6787     -20356.302    
     12950   181.50479      361.93558     -2329.1915      7.90647       -2321.285      -19384.396    
     13000   189.9283       378.73277     -2329.4236      8.2734039     -2321.1501     -16393.274    
     13050   193.44949      385.7543      -2329.6298      8.426789      -2321.203      -19818.201    
     13100   194.79719      388.44173     -2329.7977      8.4854959     -2321.3122     -17300.081    
     13150   186.56175      372.01957     -2329.5525      8.1267544     -2321.4257     -15918.58     
     13200   205.18413      409.15415     -2330.4701      8.9379579     -2321.5322     -19441.043    
     13250   204.823        408.43403     -2330.3889      8.9222269     -2321.4667     -17143.739    
     13300   194.57396      387.9966      -2329.9909      8.4757719     -2321.5152     -16291.702    
     13350   201.90766      402.6206      -2330.4505      8.7952327     -2321.6553     -20008.378    
     13400   196.03047      390.901       -2330.0119      8.5392184     -2321.4727     -18004.472    
     13450   193.07655      385.01064     -2330.1461      8.4105437     -2321.7355     -16157.962    
     13500   204.91823      408.62393     -2330.6717      8.9263753     -2321.7453     -16421.387    
     13550   207.85761      414.48529     -2330.3494      9.0544164     -2321.295      -17747.713    
     13600   192.28739      383.43699     -2329.8614      8.3761675     -2321.4852     -15627.773    
     13650   195.01442      388.8749      -2329.7765      8.4949584     -2321.2816     -14260.662    
     13700   198.50146      395.82836     -2330.0989      8.6468565     -2321.4521     -16191.772    
     13750   186.79388      372.48247     -2329.6495      8.1368664     -2321.5126     -18225.409    
     13800   194.78262      388.41268     -2329.9872      8.4848612     -2321.5023     -18200.651    
     13850   171.91956      342.82184     -2328.9606      7.488931      -2321.4716     -13300.466    
     13900   193.234        385.3246      -2329.9924      8.4174021     -2321.575      -18265.763    
     13950   187.97609      374.83989     -2329.7881      8.1883641     -2321.5997     -17043.858    
     14000   179.16945      357.27872     -2328.7439      7.8047409     -2320.9392     -17844.252    
     14050   194.72664      388.30105     -2328.8834      8.4824227     -2320.401      -13390.337    
     14100   196.60076      392.0382      -2328.692       8.5640606     -2320.128      -17594.972    
     14150   213.37605      425.48952     -2329.3246      9.2948035     -2320.0298     -17949.915    
     14200   205.40927      409.60309     -2328.6666      8.947765      -2319.7188     -18340.604    
     14250   239.64826      477.87849     -2329.8652      10.439239     -2319.4259     -18431.813    
     14300   225.0267       448.72189     -2329.5313      9.8023138     -2319.729      -18775.835    
     14350   203.2967       405.39046     -2328.8311      8.8557403     -2319.9753     -13054.705    
     14400   206.79512      412.3666      -2328.9005      9.0081337     -2319.8923     -20602.202    
     14450   219.0549       436.81362     -2328.9135      9.5421781     -2319.3713     -16896.705    
     14500   199.27304      397.36694     -2328.3387      8.6804668     -2319.6583     -16063.739    
     14550   220.7364       440.16667     -2329.1387      9.6154253     -2319.5233     -17684.144    
     14600   196.38349      391.60495     -2328.249       8.5545963     -2319.6944     -12707.74     
     14650   234.91111      468.43221     -2330.2016      10.232885     -2319.9687     -17942.749    
     14700   218.77232      436.25013     -2329.2563      9.5298686     -2319.7264     -14923.191    
     14750   235.12129      468.85132     -2329.4149      10.242041     -2319.1728     -12370.259    
     14800   226.74994      452.15817     -2329.1002      9.8773791     -2319.2228     -17698.987    
     14850   213.63578      426.00745     -2328.0697      9.3061176     -2318.7636     -15833.069    
     14900   221.47927      441.64802     -2328.8728      9.6477853     -2319.225      -13242.748    
     14950   236.64148      471.88271     -2329.2606      10.308261     -2318.9523     -17415.914    
     15000   233.32563      465.27064     -2328.7634      10.163821     -2318.5996     -18756.834    
     15050   210.14262      419.04179     -2329.0203      9.153953      -2319.8663     -13769.555    
     15100   201.21109      401.23159     -2328.5157      8.7648898     -2319.7508     -18991.404    
     15150   209.9354       418.62857     -2329.117       9.1449263     -2319.972      -15208.185    
     15200   222.95009      444.58096     -2329.5776      9.7118552     -2319.8658     -15670.484    
     15250   222.82519      444.33188     -2329.6341      9.7064142     -2319.9277     -19406.613    
     15300   210.26688      419.28957     -2329.5898      9.1593657     -2320.4304     -15836.275    
     15350   201.29679      401.40247     -2329.6114      8.7686226     -2320.8428     -15315.237    
     15400   224.00603      446.68658     -2330.3262      9.7578525     -2320.5684     -18879.837    
     15450   209.72955      418.21809     -2329.1156      9.1359593     -2319.9797     -16782.111    
     15500   205.9051       410.59182     -2329.1121      8.9693637     -2320.1428     -16037.96     
     15550   208.93379      416.63128     -2329.9259      9.1012956     -2320.8246     -16953.526    
     15600   220.8385       440.37026     -2330.2015      9.6198728     -2320.5816     -17493.657    
     15650   214.07292      426.87914     -2330.0823      9.3251596     -2320.7571     -15319.055    
     15700   206.78223      412.34089     -2329.2053      9.0075722     -2320.1977     -14210.422    
     15750   207.14636      413.06699     -2329.4987      9.0234338     -2320.4753     -18005.187    
     15800   210.41568      419.58629     -2330.2005      9.1658477     -2321.0346     -15943.287    
     15850   221.34816      441.38658     -2329.8147      9.6420741     -2320.1726     -15725.332    
     15900   191.58082      382.02802     -2329.6879      8.3453886     -2321.3425     -15295.749    
     15950   200.1603       399.13622     -2328.8231      8.7191165     -2320.104      -15860.03     
     16000   222.7904       444.26252     -2328.6515      9.704899      -2318.9466     -12152.642    
     16050   229.26219      457.16779     -2327.7905      9.9868142     -2317.8037     -19155.231    
     16100   199.56686      397.95285     -2326.5402      8.693266      -2317.8469     -16570.99     
     16150   207.30978      413.39287     -2326.9936      9.0305526     -2317.9631     -18646.166    
     16200   194.68963      388.22726     -2326.6608      8.4808107     -2318.18       -15616.355    
     16250   217.49545      433.70395     -2327.3738      9.4742473     -2317.8995     -16335.322    
     16300   218.86974      436.4444      -2327.6347      9.5341123     -2318.1005     -16294.801    
     16350   201.86606      402.53766     -2327.1092      8.7934208     -2318.3158     -14881.594    
     16400   216.05809      430.83773     -2327.6984      9.4116349     -2318.2867     -14690.629    
     16450   220.16043      439.01814     -2327.995       9.5903356     -2318.4047     -14891.387    
     16500   227.6518       453.95654     -2328.4528      9.9166646     -2318.5362     -13434.926    
     16550   230.68607      460.00713     -2328.4946      10.048839     -2318.4458     -16860.703    
     16600   220.88012      440.45326     -2328.2619      9.6216859     -2318.6402     -16546.59     
     16650   226.46493      451.58982     -2328.6195      9.8649636     -2318.7545     -16168.547    
     16700   206.87238      412.52066     -2327.8311      9.0114992     -2318.8196     -17714.859    
     16750   201.62882      402.06456     -2327.7167      8.7830861     -2318.9337     -15467.375    
     16800   206.54271      411.86327     -2328.0927      8.9971384     -2319.0956     -19055.628    
     16850   193.28825      385.43278     -2327.5365      8.4197654     -2319.1167     -18117.292    
     16900   202.1157       403.03545     -2327.9892      8.8042951     -2319.1849     -20310.792    
     16950   204.56132      407.91221     -2328.3012      8.9108278     -2319.3903     -16084.309    
     17000   213.25458      425.2473      -2328.7189      9.2895122     -2319.4294     -17158.957    
     17050   183.69306      366.29918     -2327.4693      8.0017926     -2319.4675     -15853.736    
     17100   205.56547      409.91457     -2328.587       8.9545693     -2319.6324     -19656.433    
     17150   214.81012      428.34917     -2328.8943      9.3572725     -2319.537      -17473.266    
     17200   198.94895      396.72069     -2328.1125      8.6663493     -2319.4461     -20051.761    
     17250   222.99433      444.66917     -2329.2556      9.7137823     -2319.5418     -18704.878    
     17300   217.03886      432.79347     -2329.1188      9.4543581     -2319.6645     -19898.091    
     17350   193.17957      385.21606     -2328.1555      8.4150312     -2319.7405     -17693.833    
     17400   203.59042      405.97616     -2328.7276      8.8685348     -2319.859      -17433.695    
     17450   201.71981      402.24602     -2328.489       8.78705       -2319.702      -17338.317    
     17500   194.2628       387.37612     -2328.2512      8.4622175     -2319.789      -16026.073    
     17550   186.02544      370.95014     -2327.9891      8.1033927     -2319.8857     -17851.1      
     17600   195.06509      388.97596     -2328.5391      8.497166      -2320.0419     -19254.7      
     17650   186.03249      370.96419     -2328.2084      8.1036996     -2320.1047     -17794.061    
     17700   206.80961      412.39549     -2329.0822      9.0087648     -2320.0734     -15080.51     
     17750   199.22598      397.27311     -2328.3457      8.6784169     -2319.6673     -17595.635    
     17800   211.70381      422.15493     -2328.9018      9.2219594     -2319.6798     -15407.9      
     17850   213.81529      426.3654      -2329.1095      9.3139369     -2319.7956     -15074.085    
     17900   205.17464      409.13522     -2328.5252      8.9375444     -2319.5876     -17031.25     
     17950   212.09161      422.92823     -2328.935       9.2388522     -2319.6962     -19927.897    
     18000   213.77567      426.28639     -2329.1292      9.312211      -2319.8169     -13781.373    
     18050   187.77061      374.43015     -2327.9316      8.1794133     -2319.7522     -17453.418    
     18100   205.10572      408.99779     -2328.7896      8.9345423     -2319.8551     -15261.147    
     18150   206.58849      411.95457     -2328.9635      8.999133      -2319.9644     -17236.117    
     18200   214.27352      427.27914     -2329.4111      9.3338977     -2320.0772     -15053.823    
     18250   192.73709      384.33373     -2328.5818      8.3957566     -2320.186      -18370.562    
     18300   204.0574       406.90736     -2329.1482      8.8888768     -2320.2593     -15071.785    
     18350   205.02781      408.84244     -2329.1423      8.9311487     -2320.2111     -17216.498    
     18400   197.81519      394.45988     -2328.9648      8.616962      -2320.3479     -16923.293    
     18450   202.20939      403.22228     -2329.0022      8.8083765     -2320.1938     -19726.361    
     18500   184.56893      368.04574     -2328.3357      8.0399462     -2320.2958     -16380.299    
     18550   203.11794      405.03401     -2329.3085      8.8479535     -2320.4606     -17303.062    
     18600   195.37229      389.58852     -2328.9814      8.5105475     -2320.4709     -17405.136    
     18650   195.80437      390.45013     -2329.0242      8.5293692     -2320.4948     -15407.023    
     18700   216.07476      430.87097     -2329.9085      9.412361      -2320.4961     -16273.914    
     18750   195.74245      390.32666     -2329.1234      8.5266721     -2320.5967     -17278.452    
     18800   181.70459      362.334       -2328.6098      7.9151733     -2320.6947     -16402.221    
     18850   188.10803      375.10299     -2329.0003      8.1941115     -2320.8062     -13537.906    
     18900   206.74487      412.2664      -2329.9049      9.0059448     -2320.8989     -17348.325    
     18950   205.99471      410.77052     -2329.7822      8.9732675     -2320.8089     -16865.143    
     19000   196.33694      391.51213     -2329.4574      8.5525685     -2320.9048     -16024.637    
     19050   191.96509      382.79429     -2329.5375      8.3621277     -2321.1754     -18541.475    
     19100   185.17867      369.2616      -2329.1555      8.0665065     -2321.089      -14910.601    
     19150   183.27354      365.46262     -2329.1641      7.9835179     -2321.1806     -16457.243    
     19200   182.36077      363.64248     -2329.2272      7.9437572     -2321.2835     -17291.398    
     19250   180.83328      360.59655     -2329.0565      7.8772188     -2321.1793     -18353.136    
     19300   189.26607      377.41223     -2329.5216      8.2445568     -2321.2771     -18001.98     
     19350   186.90736      372.70877     -2329.5094      8.1418098     -2321.3676     -14024.457    
     19400   192.93066      384.71972     -2329.8692      8.4041885     -2321.465      -18485.759    
     19450   187.79717      374.48311     -2329.73        8.1805702     -2321.5494     -14668.457    
     19500   205.08187      408.95024     -2330.5872      8.9335035     -2321.6537     -17482.284    
     19550   179.98507      358.90514     -2329.3849      7.8402701     -2321.5446     -18876.27     
     19600   182.13164      363.18557     -2329.5617      7.933776      -2321.6279     -17749.187    
     19650   175.66057      350.28174     -2329.3632      7.6518921     -2321.7113     -19582.05     
     19700   180.86242      360.65464     -2329.6835      7.8784878     -2321.805      -17408.193    
     19750   174.78384      348.53346     -2329.4971      7.613701      -2321.8834     -18904.814    
     19800   183.14402      365.20436     -2329.9513      7.9778762     -2321.9734     -20476.055    
     19850   171.61338      342.21129     -2329.3184      7.4755936     -2321.8428     -17295.093    
     19900   180.30304      359.5392      -2329.7761      7.854121      -2321.922      -19725.597    
     19950   182.20982      363.34148     -2329.9388      7.9371817     -2322.0016     -19508.24     
     20000   191.60042      382.06711     -2330.4352      8.3462424     -2322.0889     -17945.094    
     20050   181.92639      362.77628     -2330.106       7.924835      -2322.1812     -16841.459    
     20100   177.02671      353.00593     -2329.9868      7.7114021     -2322.2754     -17325.945    
     20150   195.72561      390.29308     -2330.6937      8.5259385     -2322.1678     -19187.765    
     20200   186.73839      372.37181     -2330.5572      8.134449      -2322.4227     -17173.708    
     20250   196.82849      392.49232     -2330.9208      8.5739807     -2322.3468     -14400.875    
     20300   175.19588      349.3551      -2330.0492      7.6316497     -2322.4175     -18158.68     
     20350   184.08988      367.09047     -2330.5225      8.0190782     -2322.5034     -17747.172    
     20400   172.94434      344.86534     -2330.1246      7.533571      -2322.5911     -15064.252    
     20450   171.15598      341.2992      -2329.9405      7.4556688     -2322.4848     -20611.969    
     20500   190.16771      379.21017     -2330.6925      8.2838326     -2322.4086     -16944.123    
     20550   182.45245      363.8253      -2330.5242      7.9477509     -2322.5765     -16370.482    
     20600   163.78826      326.60736     -2329.7885      7.1347261     -2322.6538     -16638.861    
     20650   192.41447      383.69039     -2331.1606      8.3817029     -2322.7789     -15068.837    
     20700   172.5504       344.07979     -2330.3768      7.5164108     -2322.8604     -16080.159    
     20750   174.8493       348.664       -2330.2791      7.6165526     -2322.6626     -18484.98     
     20800   191.37572      381.61904     -2330.9184      8.3364544     -2322.582      -16973.146    
     20850   162.80507      324.6468      -2329.7286      7.0918979     -2322.6367     -15562.866    
     20900   175.39556      349.75328     -2330.3679      7.6403481     -2322.7276     -17345.087    
     20950   161.38315      321.81137     -2329.8386      7.0299579     -2322.8086     -18305.551    
     21000   180.96318      360.85558     -2330.6045      7.8828774     -2322.7216     -14168.222    
     21050   173.29343      345.56146     -2330.4672      7.5487779     -2322.9184     -18713.881    
     21100   174.39304      347.75417     -2330.2864      7.5966775     -2322.6898     -15944.605    
     21150   174.5637       348.09448     -2330.3121      7.6041116     -2322.708      -21321.142    
     21200   195.80906      390.45949     -2331.412       8.5295737     -2322.8824     -14539.867    
     21250   184.59183      368.09141     -2330.8815      8.0409437     -2322.8406     -16422.889    
     21300   153.27032      305.63372     -2329.4985      6.6765577     -2322.822      -19751.753    
     21350   179.86754      358.67078     -2330.208       7.8351505     -2322.3729     -17986.571    
     21400   183.23663      365.38902     -2330.2726      7.9819103     -2322.2907     -14420.266    
     21450   181.82589      362.57588     -2330.2874      7.9204573     -2322.367      -17415.304    
     21500   181.24337      361.41429     -2330.4776      7.8950823     -2322.5826     -15151.625    
     21550   191.03001      380.92966     -2330.8008      8.3213949     -2322.4794     -16576.778    
     21600   173.69441      346.36105     -2330.0983      7.5662449     -2322.532      -16035.078    
     21650   182.80102      364.52038     -2330.5022      7.9629348     -2322.5393     -15498.862    
     21700   186.72433      372.34379     -2330.4829      8.1338369     -2322.3491     -15769.766    
     21750   184.48836      367.88508     -2330.6675      8.0364365     -2322.631      -18540.701    
     21800   172.11205      343.20569     -2330.225       7.4973162     -2322.7277     -15695.252    
     21850   171.81983      342.62298     -2330.2915      7.4845868     -2322.8069     -19623.39     
     21900   170.30718      339.60663     -2330.3005      7.4186948     -2322.8818     -15227.745    
     21950   180.63127      360.19372     -2330.8211      7.8684191     -2322.9526     -18794.778    
     22000   183.23267      365.38112     -2330.9779      7.9817377     -2322.9961     -18819.609    
     22050   164.03518      327.09973     -2330.1697      7.145482      -2323.0242     -16449.956    
     22100   164.8577       328.73992     -2330.246       7.1813118     -2323.0647     -18577.21     
     22150   175.69436      350.3491      -2330.7211      7.6533637     -2323.0678     -17487.722    
     22200   160.23915      319.53015     -2330.0794      6.9801247     -2323.0993     -15970.101    
     22250   173.1959       345.36697     -2330.6733      7.5445293     -2323.1287     -18608.976    
     22300   167.6573       334.32254     -2330.5711      7.303264      -2323.2679     -13324.123    
     22350   177.32421      353.59916     -2330.9867      7.7243611     -2323.2624     -17939.745    
     22400   163.76583      326.56264     -2330.4828      7.1337492     -2323.3491     -16155.527    
     22450   181.32775      361.58255     -2331.2236      7.898758      -2323.3249     -19568.341    
     22500   179.72599      358.38851     -2331.3348      7.8289843     -2323.5058     -17088.29     
     22550   180.08784      359.11007     -2330.6624      7.8447467     -2322.8177     -13935.164    
     22600   184.4971       367.9025      -2330.6027      8.0368171     -2322.5659     -17493.769    
     22650   182.17467      363.27139     -2330.3244      7.9356506     -2322.3888     -15662.192    
     22700   187.95906      374.80594     -2330.7863      8.1876225     -2322.5987     -20085.385    
     22750   175.76304      350.48605     -2330.5752      7.6563554     -2322.9189     -17852.905    
     22800   190.44035      379.75383     -2331.2742      8.2957088     -2322.9785     -15281.063    
     22850   183.18398      365.28403     -2330.7983      7.9796168     -2322.8187     -19522.358    
     22900   193.38151      385.61876     -2331.2459      8.4238281     -2322.822      -17196.02     
     22950   188.67434      376.23227     -2331.359       8.2187806     -2323.1402     -16340.843    
     23000   184.63988      368.18722     -2331.1464      8.0430366     -2323.1034     -16883.779    
     23050   185.74054      370.38203     -2330.9702      8.0909823     -2322.8792     -16448.693    
     23100   210.59         419.93391     -2331.9914      9.1734413     -2322.8179     -15829.099    
     23150   195.32256      389.48937     -2330.8411      8.5083815     -2322.3328     -17132.721    
     23200   192.57028      384.0011      -2330.7725      8.3884904     -2322.384      -15569.091    
     23250   194.60509      388.05868     -2330.9312      8.4771281     -2322.4541     -16757.944    
     23300   178.3305       355.60578     -2330.2369      7.7681957     -2322.4687     -14545.779    
     23350   175.14345      349.25055     -2330.173       7.629366      -2322.5437     -16374.771    
     23400   188.9074       376.697       -2330.819       8.2289325     -2322.5901     -18273.136    
     23450   193.12056      385.0984      -2330.9783      8.4124609     -2322.5658     -16788.571    
     23500   175.52187      350.00515     -2330.4148      7.6458501     -2322.769      -18025.027    
     23550   189.67369      378.22506     -2331.0857      8.2623129     -2322.8233     -16338.441    
     23600   176.74517      352.44451     -2330.6544      7.6991378     -2322.9553     -14632.975    
     23650   184.92274      368.75126     -2331.0177      8.0553583     -2322.9623     -20254.475    
     23700   173.63576      346.24408     -2330.7         7.5636897     -2323.1363     -15871.621    
     23750   191.27014      381.40851     -2331.1924      8.3318553     -2322.8605     -14476.646    
     23800   182.94507      364.80762     -2330.5709      7.9692095     -2322.6017     -16142.592    
     23850   184.6505       368.2084      -2330.5408      8.0434994     -2322.4973     -15799.359    
     23900   190.41656      379.7064      -2330.8384      8.2946729     -2322.5438     -15856.142    
     23950   188.53513      375.95467     -2330.7862      8.2127163     -2322.5735     -17262.52     
     24000   175.55484      350.07089     -2330.1503      7.6472862     -2322.5031     -15987.669    
     24050   166.253        331.52225     -2329.8371      7.2420917     -2322.595      -19824.116    
     24100   170.27786      339.54817     -2330.0526      7.4174176     -2322.6352     -14814.379    
     24150   181.1825       361.29291     -2330.5911      7.8924309     -2322.6987     -18302.619    
     24200   176.18371      351.32491     -2330.3519      7.6746802     -2322.6772     -16657.835    
     24250   185.18603      369.27628     -2330.7283      8.0668273     -2322.6615     -16358.149    
     24300   194.7136       388.27506     -2331.1403      8.4818548     -2322.6585     -19112.672    
     24350   185.54529      369.99268     -2330.4858      8.0824769     -2322.4033     -18743.392    
     24400   200.15279      399.12124     -2331.0548      8.7187893     -2322.336      -14296.568    
     24450   188.72385      376.331       -2330.4266      8.2209373     -2322.2056     -15828.223    
     24500   185.94323      370.7862      -2330.2279      8.0998115     -2322.1281     -16942.323    
     24550   185.84505      370.59043     -2330.2096      8.0955347     -2322.1141     -14777.381    
     24600   187.6913       374.272       -2330.3673      8.1759585     -2322.1913     -16773.178    
     24650   186.33526      371.56794     -2330.3643      8.1168885     -2322.2474     -17555.623    
     24700   175.49264      349.94686     -2329.7147      7.6445766     -2322.0702     -17150.016    
     24750   186.64816      372.19189     -2330.0656      8.1305187     -2321.9351     -16961.128    
     24800   172.94688      344.8704      -2329.5641      7.5336817     -2322.0304     -16528.469    
     24850   202.58694      403.97514     -2331.0379      8.8248225     -2322.213      -16363.866    
     24900   183.9967       366.90466     -2330.4625      8.0150194     -2322.4475     -15178.49     
     24950   195.33541      389.51499     -2330.6758      8.508941      -2322.1669     -17538.036    
     25000   172.96775      344.91203     -2329.787       7.534591      -2322.2524     -15644.222    
     25050   177.14357      353.23895     -2330.1695      7.7164924     -2322.453      -16432.023    
     25100   183.31111      365.53753     -2330.5386      7.9851544     -2322.5534     -15290.569    
     25150   183.59816      366.10993     -2330.6346      7.9976585     -2322.6369     -17710.372    
     25200   184.69752      368.30215     -2330.7865      8.0455473     -2322.7409     -17529.385    
     25250   185.13342      369.17137     -2330.6702      8.0645354     -2322.6057     -15699.925    
     25300   177.56008      354.06951     -2330.411       7.7346358     -2322.6763     -17975.563    
     25350   186.01482      370.92897     -2330.9732      8.1029301     -2322.8703     -18309.294    
     25400   184.66705      368.2414      -2330.4787      8.0442203     -2322.4345     -18543.916    
     25450   184.32725      367.5638      -2330.5858      8.0294181     -2322.5564     -16549.266    
     25500   186.51975      371.93584     -2330.2253      8.1249252     -2322.1003     -14333.043    
     25550   192.14236      383.14778     -2329.8768      8.3698496     -2321.5069     -15772.223    
     25600   172.06133      343.10455     -2328.7687      7.4951067     -2321.2736     -16868.168    
     25650   197.24946      393.33176     -2329.5664      8.5923183     -2320.9741     -16937.931    
     25700   193.62466      386.10362     -2329.6346      8.4344198     -2321.2001     -16051.706    
     25750   182.50995      363.93996     -2329.2015      7.9502556     -2321.2513     -18089.797    
     25800   204.38853      407.56767     -2330.1796      8.9033013     -2321.2763     -20421.094    
     25850   201.47466      401.75715     -2329.6759      8.7763707     -2320.8995     -17846.249    
     25900   187.96797      374.82371     -2329.5182      8.1880106     -2321.3302     -15873.829    
     25950   195.86544      390.57191     -2329.9182      8.5320295     -2321.3862     -17648.055    
     26000   189.16553      377.21174     -2329.6481      8.2401771     -2321.408      -14086.416    
     26050   186.72772      372.35054     -2329.1833      8.1339844     -2321.0493     -16240.675    
     26100   218.91165      436.52796     -2329.8547      9.5359378     -2320.3187     -16020.381    
     26150   207.96036      414.69018     -2328.6697      9.0588922     -2319.6108     -15262.138    
     26200   193.69552      386.24491     -2328.293       8.4375064     -2319.8555     -17823.473    
     26250   204.97208      408.7313      -2328.7153      8.9287207     -2319.7866     -18058.796    
     26300   206.69024      412.15747     -2328.452       9.0035653     -2319.4484     -18213.603    
     26350   216.77344      432.2642      -2328.3626      9.4427962     -2318.9198     -18054.721    
     26400   217.8095       434.33018     -2328.6109      9.4879273     -2319.123      -16330.314    
     26450   204.25294      407.29727     -2328.1078      8.8973945     -2319.2104     -20289.109    
     26500   208.15557      415.07945     -2327.9194      9.0673959     -2318.852      -14924.391    
     26550   199.97615      398.76901     -2327.392       8.7110948     -2318.681      -18378.218    
     26600   198.93156      396.68601     -2327.6798      8.6655918     -2319.0142     -15344.168    
     26650   195.14324      389.13178     -2327.6049      8.50057       -2319.1043     -16638.765    
     26700   200.76543      400.34291     -2327.9136      8.7454766     -2319.1681     -16581.497    
     26750   215.7493       430.22198     -2328.659       9.3981838     -2319.2608     -14974.499    
     26800   214.7044       428.13835     -2328.7613      9.3526671     -2319.4086     -17376.707    
     26850   204.21606      407.22373     -2328.2736      8.895788      -2319.3778     -16923.604    
     26900   196.94069      392.71605     -2327.8662      8.5788681     -2319.2873     -19817.917    
     26950   206.81043      412.39713     -2328.3079      9.0088006     -2319.2991     -16569.596    
     27000   208.95236      416.66832     -2328.7092      9.1021047     -2319.6071     -17530.566    
     27050   195.16341      389.172       -2328.149       8.5014485     -2319.6476     -16730.482    
     27100   201.52973      401.86697     -2328.5269      8.7787697     -2319.7481     -21564.513    
     27150   211.03518      420.82163     -2329.1422      9.1928335     -2319.9493     -14369.67     
     27200   203.17983      405.1574      -2328.9265      8.8506491     -2320.0758     -19550.49     
     27250   193.98133      386.81484     -2328.5986      8.4499564     -2320.1487     -15502.124    
     27300   176.89578      352.74484     -2327.9342      7.7056985     -2320.2285     -15633.405    
     27350   185.35706      369.61733     -2328.18        8.0742775     -2320.1057     -15958.911    
     27400   201.36399      401.53647     -2328.7468      8.7715499     -2319.9752     -17582.889    
     27450   204.16562      407.12317     -2328.6661      8.8935911     -2319.7725     -20200.609    
     27500   227.56824      453.78992     -2329.9181      9.9130247     -2320.0051     -15623.627    
     27550   203.27487      405.34693     -2328.7296      8.8547893     -2319.8748     -17687.152    
     27600   192.31025      383.48257     -2328.3784      8.3771632     -2320.0012     -17970.285    
     27650   208.73059      416.22608     -2328.8149      9.092444      -2319.7225     -14382.615    
     27700   214.02051      426.77463     -2329.3273      9.3228766     -2320.0044     -16192.725    
     27750   184.5942       368.09612     -2328.3485      8.0410466     -2320.3075     -15279.387    
     27800   204.90578      408.5991      -2329.3032      8.9258329     -2320.3774     -18036.908    
     27850   196.03367      390.90738     -2329.0601      8.5393578     -2320.5207     -12350.539    
     27900   185.36066      369.62451     -2328.5876      8.0744343     -2320.5132     -19420.413    
     27950   194.26516      387.38082     -2329.1374      8.4623204     -2320.6751     -15276.526    
     28000   208.93101      416.62575     -2329.8704      9.1011746     -2320.7692     -16113.437    
     28050   184.87327      368.65261     -2328.7931      8.0532031     -2320.7399     -14788.816    
     28100   180.29142      359.51602     -2328.6082      7.8536147     -2320.7546     -15916.557    
     28150   191.9715       382.80706     -2329.1385      8.3624067     -2320.7761     -14293.762    
     28200   195.65085      390.14401     -2329.7396      8.522682      -2321.217      -15417.588    
     28250   154.21842      307.5243      -2328.0147      6.7178574     -2321.2968     -15045.23     
     28300   189.64793      378.17368     -2329.2639      8.2611906     -2321.0027     -15549.874    
     28350   188.54255      375.96947     -2329.0155      8.2130397     -2320.8025     -14266.854    
     28400   194.12695      387.10523     -2329.4501      8.4562999     -2320.9938     -17314.238    
     28450   220.25037      439.19749     -2330.0388      9.5942536     -2320.4446     -16734.103    
     28500   203.46538      405.72681     -2329.7509      8.8630878     -2320.8879     -16114.127    
     28550   215.14544      429.01784     -2329.4377      9.3718794     -2320.0658     -17557.308    
     28600   260.00688      518.47526     -2329.4468      11.326074     -2318.1207     -17459.488    
     28650   239.49454      477.57194     -2328.4801      10.432542     -2318.0475     -14103.137    
     28700   212.54691      423.83614     -2326.1773      9.2586855     -2316.9186     -12075.734    
     28750   253.99067      506.47843     -2328.3382      11.064003     -2317.2742     -17564.996    
     28800   245.48899      489.52537     -2328.0045      10.693664     -2317.3108     -13137.492    
     28850   255.79836      510.08312     -2328.4521      11.142748     -2317.3094     -13550.242    
     28900   237.32957      473.25481     -2327.3577      10.338235     -2317.0195     -16341.449    
     28950   245.21641      488.98184     -2327.0597      10.681791     -2316.3779     -17597.379    
     29000   242.71822      484.00023     -2326.8322      10.572968     -2316.2593     -13294.772    
     29050   234.44696      467.50665     -2326.5849      10.212666     -2316.3722     -14410.974    
     29100   235.74553      470.09612     -2326.7159      10.269233     -2316.4467     -13733.815    
     29150   230.9662       460.56574     -2326.3837      10.061042     -2316.3226     -15938.672    
     29200   249.8925       498.30635     -2327.0006      10.885485     -2316.1151     -15236.941    
     29250   233.91971      466.45529     -2326.6092      10.189699     -2316.4195     -19033.416    
     29300   249.40691      497.33805     -2327.4212      10.864332     -2316.5568     -15426.08     
     29350   222.74027      444.16256     -2326.3009      9.7027153     -2316.5982     -15516.455    
     29400   238.59256      475.77333     -2327.7314      10.393252     -2317.3382     -16409.002    
     29450   230.07283      458.78428     -2327.5095      10.022126     -2317.4873     -17861.663    
     29500   215.27546      429.27711     -2327.053       9.3775432     -2317.6754     -13456.602    
     29550   217.30697      433.32809     -2327.2319      9.4660368     -2317.7659     -14521.624    
     29600   230.35353      459.34402     -2327.3859      10.034354     -2317.3515     -16303.96     
     29650   222.9557       444.59213     -2327.2442      9.7120993     -2317.5321     -17260.805    
     29700   222.08769      442.86125     -2327.3895      9.6742882     -2317.7152     -16140.996    
     29750   232.7491       464.12098     -2327.5093      10.138706     -2317.3706     -16273.502    
     29800   224.27485      447.22264     -2326.9528      9.7695626     -2317.1832     -15209.381    
     29850   225.43833      449.54271     -2326.9511      9.8202446     -2317.1309     -17698.954    
     29900   250.39389      499.30616     -2328.1624      10.907325     -2317.255      -17769.531    
     29950   224.74894      448.16801     -2327.2386      9.7902143     -2317.4484     -16531.704    
     30000   241.3626       481.29701     -2328.0908      10.513916     -2317.5769     -14532.919    
     30050   233.71095      466.039       -2327.8924      10.180605     -2317.7118     -12470.656    
     30100   229.33516      457.3133      -2327.581       9.9899929     -2317.591      -14812.225    
     30150   241.96693      482.50211     -2328.1407      10.540241     -2317.6005     -17263.814    
     30200   249.60742      497.73787     -2328.0498      10.873066     -2317.1767     -16119.195    
     30250   230.79358      460.22151     -2327.1901      10.053523     -2317.1366     -15458.506    
     30300   250.53177      499.5811      -2328.0415      10.913331     -2317.1282     -18227.034    
     30350   254.24551      506.98661     -2328.2138      11.075104     -2317.1386     -14259.347    
     30400   245.20856      488.96619     -2327.991       10.681449     -2317.3095     -17808.659    
     30450   221.52929      441.74775     -2327.1288      9.6499638     -2317.4788     -15352.571    
     30500   254.25874      507.013       -2328.7161      11.075681     -2317.6404     -16494.529    
     30550   231.23658      461.1049      -2328.0957      10.07282      -2318.0229     -19607.689    
     30600   235.45726      469.52128     -2327.8913      10.256676     -2317.6347     -15255.618    
     30650   223.91908      446.5132      -2326.997       9.7540649     -2317.243      -18396.251    
     30700   229.7941       458.22847     -2327.2832      10.009985     -2317.2732     -12934.725    
     30750   206.42713      411.6328      -2326.0761      8.9921039     -2317.084      -17993.693    
     30800   218.77615      436.25776     -2326.4109      9.5300353     -2316.8808     -13323.982    
     30850   239.68709      477.95592     -2326.399       10.44093      -2315.9581     -19582.851    
     30900   234.54578      467.70372     -2325.7275      10.216971     -2315.5105     -14474.588    
     30950   244.87863      488.30827     -2326.0576      10.667077     -2315.3905     -17490.422    
     31000   245.89949      490.34396     -2326.0604      10.711546     -2315.3488     -18146.102    
     31050   237.63199      473.85788     -2325.7476      10.351409     -2315.3962     -14869.426    
     31100   259.25293      516.97183     -2326.9385      11.293231     -2315.6452     -15529.168    
     31150   224.86122      448.39189     -2325.4763      9.795105      -2315.6812     -10871.38     
     31200   233.61727      465.8522      -2325.5719      10.176525     -2315.3954     -18072.813    
     31250   255.93692      510.35942     -2326.268       11.148783     -2315.1192     -15908.757    
     31300   210.74176      420.23652     -2324.886       9.1800518     -2315.706      -12862.596    
     31350   259.7303       517.92373     -2326.9004      11.314026     -2315.5864     -13489.949    
     31400   236.14293      470.88857     -2326.4782      10.286544     -2316.1916     -17676.635    
     31450   230.1522       458.94255     -2326.0362      10.025584     -2316.0106     -17751.011    
     31500   253.27868      505.05867     -2327.312       11.032989     -2316.279      -16523.726    
     31550   251.89794      502.30535     -2327.423       10.972843     -2316.4502     -12609.528    
     31600   221.31528      441.32101     -2326.0011      9.6406418     -2316.3604     -20174.697    
     31650   242.31207      483.19034     -2326.2728      10.555276     -2315.7176     -16017.845    
     31700   244.4838       487.52096     -2326.2587      10.649878     -2315.6088     -13879.809    
     31750   252.23819      502.98384     -2326.3268      10.987664     -2315.3391     -15724.032    
     31800   263.73988      525.91917     -2325.827       11.488686     -2314.3383     -14826.741    
     31850   253.2012       504.90416     -2325.8243      11.029613     -2314.7947     -11756.336    
     31900   288.01155      574.31888     -2326.5795      12.545976     -2314.0335     -16282.297    
     31950   245.49766      489.54267     -2324.6509      10.694042     -2313.9569     -14408.448    
     32000   246.8997       492.33845     -2324.7557      10.755116     -2314.0006     -17376.018    
     32050   267.48166      533.3806      -2325.8238      11.65168      -2314.1721     -13714.918    
     32100   266.501        531.42507     -2325.9203      11.608962     -2314.3114     -13948.427    
     32150   265.46565      529.3605      -2325.8891      11.563861     -2314.3252     -13680.64     
     32200   236.04383      470.69095     -2324.6669      10.282227     -2314.3846     -13884.566    
     32250   266.87573      532.17232     -2325.3427      11.625285     -2313.7174     -18972.533    
     32300   263.41974      525.28078     -2325.4004      11.47474      -2313.9257     -17272.821    
     32350   292.30053      582.87148     -2326.8551      12.732807     -2314.1223     -19437.705    
     32400   245.11798      488.78556     -2324.9717      10.677503     -2314.2942     -18148.861    
     32450   264.93986      528.31203     -2326.0328      11.540957     -2314.4918     -19419.112    
     32500   280.98162      560.30063     -2326.9443      12.239747     -2314.7045     -15517.877    
     32550   273.28615      544.95523     -2326.7954      11.904528     -2314.8909     -16488.819    
     32600   262.67083      523.78739     -2326.528       11.442117     -2315.0859     -18985.211    
     32650   269.89224      538.18748     -2327.0133      11.756686     -2315.2566     -21340.485    
     32700   259.19843      516.86314     -2326.7506      11.290857     -2315.4597     -19007.846    
     32750   259.36944      517.20416     -2326.9471      11.298306     -2315.6488     -22096.57     
     32800   263.20882      524.86019     -2327.2932      11.465552     -2315.8276     -19568.307    
     32850   257.15661      512.79159     -2327.2237      11.201914     -2316.0217     -23654.999    
     32900   262.25914      522.96645     -2327.6353      11.424184     -2316.2111     -17083.938    
     32950   242.88562      484.33404     -2326.9733      10.58026      -2316.3931     -17602.65     
     33000   270.44123      539.28222     -2328.3617      11.780601     -2316.5811     -21906.163    
     33050   246.36249      491.26721     -2327.5012      10.731715     -2316.7695     -21748.785    
     33100   244.88743      488.32581     -2327.6102      10.66746      -2316.9427     -19058.98     
     33150   239.73476      478.05097     -2327.5531      10.443006     -2317.1101     -22302.197    
     33200   248.71202      495.95238     -2328.1313      10.834062     -2317.2972     -15196.007    
     33250   247.77966      494.09317     -2328.2951      10.793448     -2317.5017     -23143.445    
     33300   228.41282      455.47409     -2327.6168      9.9498154     -2317.667      -20626.413    
     33350   217.97027      434.65077     -2327.3349      9.4949306     -2317.8399     -21383.108    
     33400   230.91451      460.46267     -2328.0785      10.058791     -2318.0197     -19728.01     
     33450   244.7266       488.00511     -2328.8636      10.660454     -2318.2032     -16590.352    
     33500   236.01446      470.63239     -2328.6617      10.280948     -2318.3807     -23270.298    
     33550   238.9709       476.52777     -2328.959       10.409732     -2318.5493     -18046.768    
     33600   230.16197      458.96204     -2328.7458      10.02601      -2318.7198     -21972.451    
     33650   237.30179      473.19944     -2329.2349      10.337025     -2318.8979     -21125.538    
     33700   247.12729      492.79228     -2329.833       10.76503      -2319.068      -24039.947    
     33750   216.5002       431.71934     -2328.6543      9.4308936     -2319.2234     -20651.629    
     33800   229.57203      457.78564     -2329.4043      10.000311     -2319.404      -19848.033    
     33850   218.85193      436.40887     -2329.0903      9.5333364     -2319.5569     -19947.246    
     33900   229.52709      457.69603     -2329.7139      9.9983536     -2319.7156     -17570.758    
     33950   223.42798      445.53389     -2329.5909      9.732672      -2319.8583     -14149.127    
     34000   213.80486      426.3446      -2329.3263      9.3134827     -2320.0128     -17303.786    
     34050   232.27255      463.17071     -2330.2868      10.117948     -2320.1689     -19095.932    
     34100   227.08747      452.83123     -2330.2122      9.8920822     -2320.3202     -16898.724    
     34150   229.82502      458.29012     -2330.4701      10.011331     -2320.4588     -20935.531    
     34200   220.32676      439.34981     -2330.2112      9.597581      -2320.6136     -14173.076    
     34250   222.64724      443.97704     -2330.4536      9.6986626     -2320.7549     -19213.087    
     34300   226.35174      451.36412     -2330.7639      9.8600332     -2320.9039     -17097.414    
     34350   232.98929      464.59995     -2331.2059      10.149169     -2321.0568     -23000.002    
     34400   204.91568      408.61884     -2330.1204      8.9262642     -2321.1942     -20044.048    
     34450   232.43564      463.49592     -2331.4815      10.125052     -2321.3564     -21442.43     
     34500   203.49139      405.77868     -2330.3567      8.864221      -2321.4925     -19845.694    
     34550   210.31896      419.39343     -2330.7959      9.1616346     -2321.6342     -19793.151    
     34600   235.88296      470.37016     -2332.0522      10.275219     -2321.7769     -19512.871    
[...]
    191150   151.5043       302.11212     -2337.9108      6.5996285     -2331.3111     -19087.167    
    191200   139.56684      278.30784     -2337.4025      6.079625      -2331.3228     -24169.701    
    191250   139.68655      278.54655     -2337.4095      6.0848395     -2331.3247     -19718.25     
    191300   154.12948      307.34694     -2338.05        6.713983      -2331.336      -20534.006    
    191350   142.56343      284.28329     -2337.5498      6.2101583     -2331.3397     -19299.04     
    191400   149.60647      298.32769     -2337.8665      6.5169577     -2331.3495     -19759.453    
    191450   146.60869      292.34988     -2337.7403      6.3863728     -2331.3539     -19633.205    
    191500   150.10783      299.32744     -2337.8988      6.5387974     -2331.36       -19827.332    
    191550   139.17929      277.53504     -2337.4261      6.0627431     -2331.3634     -18912.29     
    191600   147.21924      293.56736     -2337.7889      6.4129685     -2331.3759     -19688.471    
    191650   160.76995      320.58859     -2338.3886      7.0032464     -2331.3853     -20755.783    
    191700   143.47105      286.09317     -2337.6427      6.2496951     -2331.393      -21658.723    
    191750   133.71122      266.63126     -2337.2165      5.8245504     -2331.392      -23811.449    
    191800   136.4527       272.09798     -2337.3513      5.9439707     -2331.4074     -18041.804    
    191850   140.335        279.83962     -2337.5282      6.1130865     -2331.4151     -19687.38     
    191900   156.11144      311.29914     -2338.2242      6.8003187     -2331.4239     -22265.437    
    191950   151.09827      301.30246     -2338.0126      6.5819415     -2331.4307     -21828.134    
    192000   147.95997      295.04444     -2337.8834      6.4452353     -2331.4381     -22963.919    
    192050   165.87205      330.76261     -2338.6874      7.2254974     -2331.4619     -19159.585    
    192100   149.40288      297.92173     -2337.968       6.5080895     -2331.4599     -21696.559    
    192150   159.65767      318.37063     -2338.43        6.954795      -2331.4752     -21063.109    
    192200   147.15659      293.44243     -2337.8899      6.4102395     -2331.4796     -23086.168    
    192250   140.64534      280.45846     -2337.6207      6.1266051     -2331.4941     -22470.014    
    192300   147.7507       294.62713     -2337.9392      6.4361192     -2331.5031     -20328.81     
    192350   143.57303      286.29652     -2337.7726      6.2541372     -2331.5185     -20964.999    
    192400   153.46935      306.03059     -2338.2131      6.6852274     -2331.5279     -23197.374    
    192450   149.82087      298.75523     -2338.0698      6.5262975     -2331.5435     -21677.079    
    192500   145.25269      289.6459      -2337.883       6.3273044     -2331.5557     -21752.768    
    192550   139.87234      278.91704     -2337.6619      6.0929328     -2331.569      -23324.661    
    192600   154.66526      308.41533     -2338.3238      6.737322      -2331.5864     -19293.118    
    192650   149.14292      297.40334     -2338.0991      6.4967655     -2331.6023     -20701.962    
    192700   150.87894      300.86511     -2338.1935      6.5723877     -2331.6211     -20470.284    
    192750   154.51603      308.11776     -2338.3701      6.7308215     -2331.6393     -20920.744    
    192800   150.42753      299.96495     -2338.2065      6.5527238     -2331.6538     -18666.472    
    192850   145.54152      290.22185     -2338.0087      6.339886      -2331.6688     -21167.735    
    192900   141.7482       282.65764     -2337.8714      6.1746462     -2331.6968     -21831.215    
    192950   143.09602      285.34531     -2337.9405      6.2333582     -2331.7072     -21520.182    
    193000   151.26205      301.62906     -2338.3231      6.5890761     -2331.734      -22974.08     
    193050   159.14389      317.34611     -2338.6908      6.9324145     -2331.7584     -21907.78     
    193100   155.46699      310.01406     -2338.5558      6.7722462     -2331.7836     -21846.089    
    193150   147.81847      294.76228     -2338.2472      6.4390715     -2331.8081     -23174.813    
    193200   166.61946      332.253       -2339.1054      7.258055      -2331.8474     -21654.36     
    193250   145.53655      290.21194     -2338.1989      6.3396694     -2331.8593     -21182.919    
    193300   148.08372      295.2912      -2338.3374      6.4506257     -2331.8868     -20519.768    
    193350   149.10112      297.31999     -2338.4056      6.4949447     -2331.9106     -22471.757    
    193400   142.25946      283.67715     -2338.141       6.1969174     -2331.9441     -21134.9      
    193450   153.33005      305.75282     -2338.6544      6.6791596     -2331.9753     -20220.175    
    193500   143.40394      285.95933     -2338.2498      6.2467713     -2332.003      -20970.248    
    193550   129.31757      257.86995     -2337.6648      5.6331599     -2332.0316     -20787.911    
    193600   149.36573      297.84764     -2338.5697      6.5064712     -2332.0633     -26885.524    
    193650   149.05223      297.22249     -2338.59        6.4928147     -2332.0971     -21817.163    
    193700   154.07733      307.24295     -2338.8309      6.7117114     -2332.1191     -20616.174    
    193750   150.57505      300.25913     -2338.7083      6.5591501     -2332.1491     -22644.467    
    193800   139.02123      277.21985     -2338.2293      6.0558577     -2332.1735     -20344.091    
    193850   136.48585      272.16409     -2338.147       5.945415      -2332.2016     -21213.85     
    193900   135.85935      270.91479     -2338.1487      5.918124      -2332.2305     -20239.212    
    193950   140.65971      280.48711     -2338.3786      6.1272309     -2332.2514     -19364.38     
    194000   140.27574      279.72145     -2338.391       6.1105052     -2332.2805     -25385.215    
    194050   145.99027      291.11668     -2338.6744      6.3594336     -2332.315      -21633.898    
    194100   141.5307       282.22395     -2338.5074      6.1651722     -2332.3422     -19881.738    
    194150   137.96139      275.10644     -2338.3805      6.0096903     -2332.3708     -19409.384    
    194200   139.47193      278.11859     -2338.4682      6.0754906     -2332.3927     -19815.017    
    194250   153.81294      306.71574     -2339.1271      6.7001944     -2332.4269     -20955.67     
    194300   129.89698      259.02533     -2338.1059      5.6583992     -2332.4475     -18844.219    
    194350   141.31008      281.78401     -2338.6377      6.1555617     -2332.4821     -20411.915    
    194400   135.36685      269.93271     -2338.3909      5.8966704     -2332.4943     -18967.024    
    194450   129.67081      258.57434     -2338.166       5.6485473     -2332.5174     -18758.39     
    194500   134.32253      267.85025     -2338.384       5.8511791     -2332.5329     -19238.582    
    194550   133.6767       266.56241     -2338.3782      5.8230465     -2332.5552     -21660.601    
    194600   150.69406      300.49644     -2339.1409      6.564334      -2332.5765     -21272.863    
    194650   145.77197      290.68138     -2338.9449      6.3499245     -2332.595      -21461.103    
    194700   142.56939      284.29518     -2338.8226      6.2104181     -2332.6122     -21871.644    
    194750   130.20419      259.63795     -2338.2926      5.6717818     -2332.6208     -18975.098    
    194800   142.45512      284.06731     -2338.8562      6.2054403     -2332.6508     -21401.205    
    194850   151.45696      302.01772     -2339.2702      6.5975663     -2332.6727     -19665.252    
    194900   141.37156      281.9066      -2338.8408      6.1582396     -2332.6826     -22426.659    
    194950   143.79444      286.73803     -2338.9602      6.263782      -2332.6964     -20971.363    
    195000   135.59774      270.39313     -2338.6172      5.9067284     -2332.7105     -20538.951    
    195050   139.92452      279.02108     -2338.8228      6.0952056     -2332.7276     -20591.673    
    195100   129.55888      258.35113     -2338.3787      5.6436713     -2332.735      -21843.519    
    195150   148.76833      296.65638     -2339.2379      6.480448      -2332.7574     -21923.686    
    195200   135.11728      269.43505     -2338.6454      5.8857991     -2332.7596     -20782.955    
    195250   135.89137      270.97865     -2338.687       5.9195189     -2332.7675     -21879.927    
    195300   141.5093       282.18127     -2338.9439      6.1642398     -2332.7797     -19883.69     
    195350   131.33002      261.88294     -2338.5032      5.7208235     -2332.7823     -22792.888    
    195400   130.21631      259.66212     -2338.4578      5.6723097     -2332.7855     -21425.922    
    195450   137.45755      274.10175     -2338.7872      5.987743      -2332.7994     -21173.876    
    195500   137.38972      273.96649     -2338.789       5.9847883     -2332.8042     -20161.362    
    195550   150.06271      299.23747     -2339.3488      6.5368319     -2332.812      -19968.119    
    195600   134.53613      268.2762      -2338.6702      5.860484      -2332.8097     -23154.767    
    195650   135.0739       269.34854     -2338.7009      5.8839092     -2332.817      -22750.438    
    195700   114.73445      228.78999     -2337.811       4.9979093     -2332.8131     -21796.832    
    195750   126.32719      251.90687     -2338.3232      5.5028967     -2332.8203     -22591.501    
    195800   140.00694      279.18543     -2338.9237      6.0987959     -2332.8249     -21109.752    
    195850   126.11638      251.48651     -2338.3167      5.4937139     -2332.823      -20050.624    
    195900   143.10771      285.36862     -2339.0575      6.2338675     -2332.8236     -20764.748    
    195950   128.60766      256.45432     -2338.4252      5.6022355     -2332.8229     -19599.441    
    196000   143.6137       286.37762     -2339.0806      6.255909      -2332.8247     -20853.516    
    196050   159.34677      317.75066     -2339.7606      6.9412519     -2332.8194     -25090.696    
    196100   140.77527      280.71755     -2338.9492      6.1322649     -2332.817      -20008.19     
    196150   135.42869      270.05602     -2338.7119      5.8993642     -2332.8126     -21492.884    
    196200   135.05082      269.30251     -2338.6785      5.8829039     -2332.7956     -20613.948    
    196250   132.31286      263.84281     -2338.5642      5.7636368     -2332.8005     -20972.677    
    196300   129.76012      258.75243     -2338.4438      5.6524376     -2332.7913     -20952.677    
    196350   133.44605      266.10249     -2338.5961      5.8129994     -2332.7831     -22768.148    
    196400   145.32264      289.78538     -2339.1028      6.3303514     -2332.7724     -21780.009    
    196450   132.73886      264.69229     -2338.5497      5.7821937     -2332.7675     -19139.964    
    196500   148.01862      295.1614      -2339.2124      6.4477903     -2332.7646     -19618.291    
    196550   140.16649      279.5036      -2338.8612      6.1057462     -2332.7554     -19643.667    
    196600   140.83816      280.84296     -2338.8733      6.1350045     -2332.7383     -22121.47     
    196650   133.6372       266.48364     -2338.5536      5.8213257     -2332.7322     -22793.691    
    196700   133.32019      265.8515      -2338.5312      5.8075167     -2332.7237     -20894.205    
    196750   137.17997      273.54823     -2338.6851      5.9756514     -2332.7094     -20048.46     
    196800   139.11625      277.40933     -2338.7585      6.0599969     -2332.6985     -19324.257    
    196850   146.56317      292.25911     -2339.0764      6.3843898     -2332.692      -20432.722    
    196900   125.27768      249.81407     -2338.1353      5.4571796     -2332.6781     -22251.275    
    196950   146.32158      291.77735     -2339.0407      6.3738659     -2332.6669     -22157.205    
    197000   130.39353      260.0155      -2338.3316      5.6800295     -2332.6515     -20509.591    
    197050   144.30028      287.74671     -2338.9252      6.2858167     -2332.6394     -21605.715    
    197100   150.72518      300.55849     -2339.1965      6.5656895     -2332.6308     -24004.029    
    197150   141.6284       282.41876     -2338.7839      6.1694279     -2332.6144     -23915.897    
    197200   145.44953      290.03842     -2338.9336      6.335879      -2332.5977     -22554.15     
    197250   134.44065      268.08579     -2338.4425      5.8563245     -2332.5862     -18955.749    
    197300   154.88767      308.85885     -2339.3156      6.7470107     -2332.5686     -23906.517    
    197350   138.38829      275.95771     -2338.5771      6.0282864     -2332.5488     -22605.773    
    197400   135.65212      270.50157     -2338.4435      5.9090972     -2332.5344     -19224.477    
    197450   145.20938      289.55953     -2338.8485      6.3254176     -2332.5231     -21047.428    
    197500   144.85266      288.8482      -2338.8122      6.3098787     -2332.5023     -19049.431    
    197550   132.25628      263.72997     -2338.2506      5.7611719     -2332.4894     -19607.511    
    197600   149.20243      297.52201     -2338.9691      6.4993577     -2332.4697     -22976.066    
    197650   136.75083      272.69249     -2338.4149      5.9569578     -2332.458      -21935.73     
    197700   138.43054      276.04196     -2338.4672      6.0301268     -2332.4371     -17499.771    
    197750   145.35114      289.84222     -2338.7544      6.331593      -2332.4228     -19838.618    
    197800   141.09702      281.35914     -2338.544       6.1462805     -2332.3977     -20546.445    
    197850   137.34646      273.88023     -2338.3729      5.9829039     -2332.39       -21900.442    
    197900   142.63975      284.43548     -2338.5806      6.213483      -2332.3671     -21485.283    
    197950   140.21369      279.59772     -2338.4547      6.1078023     -2332.3469     -19521.081    
    198000   129.12722      257.49038     -2337.9536      5.6248682     -2332.3287     -17888.078    
    198050   148.09398      295.31167     -2338.7604      6.451073      -2332.3093     -22177.423    
    198100   142.58352      284.32334     -2338.4988      6.2110334     -2332.2878     -20848.954    
    198150   151.72571      302.55364     -2338.8892      6.6092734     -2332.2799     -16173.063    
    198200   139.01761      277.21263     -2338.3071      6.0557001     -2332.2514     -21835.088    
    198250   149.10624      297.33019     -2338.7314      6.4951675     -2332.2362     -21737.174    
    198300   145.15128      289.44367     -2338.5438      6.3228867     -2332.221      -23253.635    
    198350   138.40454      275.99012     -2338.2251      6.0289944     -2332.1961     -20922.975    
    198400   137.15599      273.5004      -2338.154       5.9746066     -2332.1794     -20820.082    
    198450   140.99221      281.15015     -2338.2986      6.1417152     -2332.1569     -20428.478    
    198500   144.28804      287.7223      -2338.4364      6.2852833     -2332.1511     -19411.912    
    198550   141.70509      282.57169     -2338.2845      6.1727685     -2332.1117     -20765.266    
    198600   144.77778      288.69888     -2338.4096      6.3066167     -2332.103      -20072.005    
    198650   139.0857       277.34841     -2338.1394      6.0586663     -2332.0808     -22423.93     
    198700   135.30772      269.8148      -2337.9561      5.8940947     -2332.062      -23850.292    
    198750   140.87983      280.92604     -2338.1929      6.1368194     -2332.056      -19118.057    
    198800   134.44623      268.09693     -2337.8902      5.8565678     -2332.0337     -19378.462    
    198850   143.42645      286.00423     -2338.2719      6.2477522     -2332.0242     -19639.902    
    198900   136.67871      272.54868     -2337.9551      5.9538162     -2332.0013     -19794.178    
    198950   147.67775      294.48166     -2338.4244      6.4329415     -2331.9915     -21838.87     
    199000   131.47507      262.17218     -2337.7002      5.7271421     -2331.9731     -19892.767    
    199050   153.88079      306.85105     -2338.6647      6.7031502     -2331.9616     -22681.721    
    199100   145.75678      290.6511      -2338.2958      6.3492629     -2331.9465     -22905.893    
    199150   144.78026      288.70382     -2338.2439      6.3067248     -2331.9372     -21537.365    
    199200   159.68071      318.41657     -2338.8791      6.9557987     -2331.9233     -20446.972    
    199250   149.88233      298.87779     -2338.4309      6.5289747     -2331.9019     -20122.785    
    199300   144.58165      288.30778     -2338.1853      6.2980732     -2331.8872     -24573.419    
    199350   156.0094       311.09568     -2338.6696      6.795874      -2331.8737     -24452.885    
    199400   141.03109      281.22768     -2338.012       6.1434087     -2331.8686     -24862.378    
    199450   148.27025      295.66316     -2338.3119      6.4587511     -2331.8531     -18865.754    
    199500   135.6065       270.41059     -2337.7451      5.9071098     -2331.838      -22290.133    
    199550   125.31665      249.89177     -2337.2847      5.4588769     -2331.8258     -21157.602    
    199600   147.82431      294.77391     -2338.2599      6.4393257     -2331.8206     -21776.34     
    199650   150.22332      299.55775     -2338.3625      6.5438284     -2331.8186     -23815.496    
    199700   151.66374      302.43007     -2338.4134      6.6065741     -2331.8068     -20384.627    
    199750   165.88668      330.79179     -2339.0304      7.2261348     -2331.8042     -22100.754    
    199800   162.93946      324.91478     -2338.8956      7.0977518     -2331.7978     -20861.996    
    199850   144.62239      288.38903     -2338.0835      6.2998481     -2331.7837     -20451.989    
    199900   155.22044      309.52242     -2338.5404      6.7615063     -2331.7789     -20274.087    
    199950   162.81228      324.66117     -2338.864       7.0922118     -2331.7718     -21021.05     
    200000   157.51235      314.09267     -2338.6303      6.8613432     -2331.7689     -22295.374    
colvars: Saving collective variables state to "out.colvars.state".
colvars:   Writing TI PMF to file "out.metadynamics1.ti.pmf".
Loop time of 971.42 on 4 procs for 200000 steps with 338 atoms

Performance: 8.894 ns/day, 2.698 hours/ns, 205.884 timesteps/s, 69.589 katom-step/s
140.1% CPU use with 4 MPI tasks x 1 OpenMP threads

MPI task timing breakdown:
Section |  min time  |  avg time  |  max time  |%varavg| %total
---------------------------------------------------------------
Pair    | 748.75     | 852.48     | 933.92     | 267.3 | 87.76
Neigh   | 0.1428     | 2.2353     | 3.9673     |  94.3 |  0.23
Comm    | 13.56      | 88.997     | 191.81     | 783.2 |  9.16
Output  | 4.6248     | 5.528      | 6.5545     |  38.0 |  0.57
Modify  | 12.37      | 19.25      | 29.683     | 165.0 |  1.98
Other   |            | 2.924      |            |       |  0.30

Nlocal:           84.5 ave         133 max           1 min
Histogram: 1 0 0 0 0 0 0 1 1 1
Nghost:        1161.25 ave        1692 max         621 min
Histogram: 1 0 0 0 1 1 0 0 0 1
Neighs:              0 ave           0 max           0 min
Histogram: 4 0 0 0 0 0 0 0 0 0
FullNghs:      15820.5 ave       28456 max          93 min
Histogram: 1 0 0 0 1 0 0 1 0 1

Total # of neighbors = 63282
Ave neighs/atom = 187.22485
Neighbor list builds = 3854
Dangerous builds = 0
System init for write_data ...
Generated 0 of 6 mixed pair_coeff terms from geometric mixing rule

CITE-CITE-CITE-CITE-CITE-CITE-CITE-CITE-CITE-CITE-CITE-CITE-CITE

Your simulation uses code contributions which should be cited:
- Colvars module (Fiorin2013, plus other works listed for specific features)
The log file lists these citations in BibTeX format.

CITE-CITE-CITE-CITE-CITE-CITE-CITE-CITE-CITE-CITE-CITE-CITE-CITE

Total wall time: 0:16:33
