LAMMPS (2 Aug 2023)
OMP_NUM_THREADS environment is not set. Defaulting to 1 thread. (src/comm.cpp:98)
  using 1 OpenMP thread(s) per MPI task
Loaded 1 plugins from /work/home/baoergen22b/apprepo/deepmd/v2.2.9-dtk23.10/app/lib/deepmd_lmp
package gpu 4
# system
units        metal
dimension    3
atom_style   atomic
boundary     p p f

# 设置原子映射
atom_modify map array

# initial stucture
read_data POSCAR.lmp
Reading data file ...
  orthogonal box = (0 0 0) to (11.328 12.015 32)
  1 by 1 by 4 MPI processor grid
  reading atoms ...
  338 atoms
  read_data CPU = 0.029 seconds
mass      1 55.845
mass      2 15.999
mass      3 1.008
mass      4  35.450

# potential
pair_style deepmd graph-compress.pb
Summary of lammps deepmd module ...
  >>> Info of deepmd-kit:
  installed to:       /work/home/wys974137909/shangcheng/deepmd-kit/20240715/deepmd-kit_v2.2.9/install
  source:             v2.2.9
  source branch:      HEAD
  source commit:      be43748
  source commit at:   2024-02-04 13:44:12 +0800
  support model ver.: 1.1 
  build variant:      rocm
  build with tf inc:  /work/home/wys974137909/shangcheng/miniconda3/envs/deepmd-kit-v2.2.9/lib/python3.8/site-packages/tensorflow/include;/work/home/wys974137909/shangcheng/miniconda3/envs/deepmd-kit-v2.2.9/lib/python3.8/site-packages/tensorflow/include
  build with tf lib:  /work/home/wys974137909/shangcheng/miniconda3/envs/deepmd-kit-v2.2.9/lib/python3.8/site-packages/tensorflow/lib/libtensorflow_cc.so
  set tf intra_op_parallelism_threads: 0
  set tf inter_op_parallelism_threads: 0
  >>> Info of lammps module:
  use deepmd-kit at:  /work/home/wys974137909/shangcheng/deepmd-kit/20240715/deepmd-kit_v2.2.9/install
  source:             v2.2.9
  source branch:      HEAD
  source commit:      be43748
  source commit at:   2024-02-04 13:44:12 +0800
  build float prec:   double
  build with tf inc:  /work/home/wys974137909/shangcheng/miniconda3/envs/deepmd-kit-v2.2.9/lib/python3.8/site-packages/tensorflow/include;/work/home/wys974137909/shangcheng/miniconda3/envs/deepmd-kit-v2.2.9/lib/python3.8/site-packages/tensorflow/include
  build with tf lib:  /work/home/wys974137909/shangcheng/miniconda3/envs/deepmd-kit-v2.2.9/lib/python3.8/site-packages/tensorflow/lib/libtensorflow_cc.so
pair_coeff * *

# 固定原子受力、速度为 0
group fixed id 1:146  148:168
167 atoms in group fixed
group mobile subtract all fixed
171 atoms in group mobile
fix freeze_fixed fixed setforce 0.0 0.0 0.0
velocity fixed set 0 0 0

# 在z=27处添加硬性反射墙
fix wall1 mobile wall/reflect zhi 27

# 计算mobile组的温度
compute mTemp mobile temp
thermo 50
thermo_style custom step temp c_mTemp pe ke etotal press
velocity mobile  create 298.15 12345 mom yes rot yes

fix ensemble mobile  nvt temp 298.15 298.15 1
fix meta  all colvars pmf.in tstat ensemble
timestep 0.0005
dump trace all custom 1 md.lammpstrj id type x y z
run 200000

CITE-CITE-CITE-CITE-CITE-CITE-CITE-CITE-CITE-CITE-CITE-CITE-CITE

Your simulation uses code contributions which should be cited:

- GPU package (short-range, long-range and three-body potentials): doi:10.1016/j.cpc.2010.12.021, doi:10.1016/j.cpc.2011.10.012, doi:10.1016/j.cpc.2013.08.002, doi:10.1016/j.commatsci.2014.10.068, doi:10.1016/j.cpc.2016.10.020, doi:10.3233/APC200086

@Article{Brown11,
 author = {W. M. Brown and P. Wang and S. J. Plimpton and A. N. Tharrington},
 title = {Implementing Molecular Dynamics on Hybrid High Performance Computers---Short Range Forces},
 journal = {Comput.\ Phys.\ Commun.},
 year =    2011,
 volume =  182,
 pages =   {898--911},
 doi =     {10.1016/j.cpc.2010.12.021}
}

@Article{Brown12,
 author = {W. M. Brown and A. Kohlmeyer and S. J. Plimpton and A. N. Tharrington},
 title = {Implementing Molecular Dynamics on Hybrid High Performance Computers - Particle-Particle Particle-Mesh},
 journal = {Comput.\ Phys.\ Commun.},
 year =    2012,
 volume =  183,
 doi =     {10.1016/j.cpc.2011.10.012},
 pages =   {449--459}
}

@Article{Brown13,
 author = {W. M. Brown and Y. Masako},
 title = {Implementing Molecular Dynamics on Hybrid High Performance Computers---Three-Body Potentials},
 journal = {Comput.\ Phys.\ Commun.},
 year =    2013,
 volume =  184,
 pages =   {2785--2793},
 doi =     {10.1016/j.cpc.2013.08.002},
}

@Article{Trung15,
 author = {T. D. Nguyen and S. J. Plimpton},
 title = {Accelerating Dissipative Particle Dynamics Simulations for Soft Matter Systems},
 journal = {Comput.\ Mater.\ Sci.},
 year =    2015,
 doi =     {10.1016/j.commatsci.2014.10.068},
 volume =  100,
 pages =   {173--180}
}

@Article{Trung17,
 author = {T. D. Nguyen},
 title = {{GPU}-Accelerated {T}ersoff Potentials for Massively Parallel
    Molecular Dynamics Simulations},
 journal = {Comput.\ Phys.\ Commun.},
 year =    2017,
 doi =     {10.1016/j.cpc.2016.10.020},
 volume =  212,
 pages =   {113--122}
}

@inproceedings{Nikolskiy19,
 author = {V. Nikolskiy and V. Stegailov},
 title = {{GPU} Acceleration of Four-Site Water Models in {LAMMPS}},
 booktitle = {Proceedings of the International Conference on Parallel
    Computing (ParCo 2019), Prague, Czech Republic},
 doi =     {10.3233/APC200086},
 year =    2019
}

- USER-DEEPMD package:

@article{Wang_ComputPhysCommun_2018_v228_p178,
  author = {Wang, Han and Zhang, Linfeng and Han, Jiequn and E, Weinan},
  doi = {10.1016/j.cpc.2018.03.016},
  url = {https://doi.org/10.1016/j.cpc.2018.03.016},
  year = 2018,
  month = {jul},
  publisher = {Elsevier {BV}},
  volume = 228,
  journal = {Comput. Phys. Commun.},
  title = {{DeePMD-kit: A deep learning package for many-body potential energy representation and molecular dynamics}},
  pages = {178--184}
}
@misc{Zeng_JChemPhys_2023_v159_p054801,
  title  = {{DeePMD-kit v2: A software package for deep potential models}},
  author =   {Jinzhe Zeng and Duo Zhang and Denghui Lu and Pinghui Mo and Zeyu Li
         and Yixiao Chen and Mari{\'a}n Rynik and Li'ang Huang and Ziyao Li and 
         Shaochen Shi and Yingze Wang and Haotian Ye and Ping Tuo and Jiabin
         Yang and Ye Ding and Yifan Li and Davide Tisi and Qiyu Zeng and Han 
         Bao and Yu Xia and Jiameng Huang and Koki Muraoka and Yibo Wang and 
         Junhan Chang and Fengbo Yuan and Sigbj{\o}rn L{\o}land Bore and Chun
         Cai and Yinnian Lin and Bo Wang and Jiayan Xu and Jia-Xin Zhu and 
         Chenxing Luo and Yuzhi Zhang and Rhys E A Goodall and Wenshuo Liang
         and Anurag Kumar Singh and Sikai Yao and Jingchao Zhang and Renata
         Wentzcovitch and Jiequn Han and Jie Liu and Weile Jia and Darrin M
         York and Weinan E and Roberto Car and Linfeng Zhang and Han Wang},
  journal =  {J. Chem. Phys.},
  volume =   159,
  issue =    5,  
  year =    2023,
  pages  =   054801,
  doi =      {10.1063/5.0155600},
}

CITE-CITE-CITE-CITE-CITE-CITE-CITE-CITE-CITE-CITE-CITE-CITE-CITE

Generated 0 of 6 mixed pair_coeff terms from geometric mixing rule
Neighbor list info ...
  update: every = 1 steps, delay = 0 steps, check = yes
  max neighbors/atom: 2000, page size: 100000
  master list distance cutoff = 8
  ghost atom cutoff = 8
  binsize = 4, bins = 3 4 8
  1 neighbor lists, perpetual/occasional/extra = 1 0 0
  (1) pair deepmd, perpetual
      attributes: full, newton on
      pair build: full/bin/atomonly
      stencil: full/bin/3d
      bin: standard
colvars: Creating proxy instance
colvars: ----------------------------------------------------------------------
colvars: Initializing the collective variables module, version 2023-05-01.
colvars: Please cite Fiorin et al, Mol Phys 2013:
colvars:   https://doi.org/10.1080/00268976.2013.813594
colvars: as well as all other papers listed below for individual features used.
colvars: This version was built with the C++11 standard or higher.
colvars: Using LAMMPS interface, version "2023-04-12".
colvars: ----------------------------------------------------------------------
colvars: Reading new configuration from file "pmf.in":
colvars: # units = "" [default]
colvars: # smp = on [default]
colvars: # colvarsTrajFrequency = 100 [default]
colvars: # colvarsRestartFrequency = 0 [default]
colvars: # scriptedColvarForces = off [default]
colvars: # scriptingAfterBiases = off [default]
colvars: ----------------------------------------------------------------------
colvars:   Initializing a new collective variable.
colvars:   # name = "cn_fe_fe"
colvars:   Initializing a new "coordNum" component.
colvars:     # name = "" [default]
colvars:     # componentCoeff = 1 [default]
colvars:     # componentExp = 1 [default]
colvars:     # period = 0 [default]
colvars:     # wrapAround = 0 [default]
colvars:     # forceNoPBC = off [default]
colvars:     # scalable = on [default]
colvars:       Initializing atom group "group1".
colvars:       # name = "" [default]
colvars:       # centerToOrigin = off [default]
colvars:       # centerToReference = off [default]
colvars:       # rotateToReference = off [default]
colvars:       # atomsOfGroup = "" [default]
colvars:       # indexGroup = "" [default]
colvars:       # psfSegID =  [default]
colvars:       # atomsFile = "" [default]
colvars:       # dummyAtom = ( 0 , 0 , 0 ) [default]
colvars:       # enableFitGradients = on [default]
colvars:       # printAtomIDs = off [default]
colvars:       Atom group "group1" defined with 1 atoms requested.
colvars:       Initializing atom group "group2".
colvars:       # name = "" [default]
colvars:       # centerToOrigin = off [default]
colvars:       # centerToReference = off [default]
colvars:       # rotateToReference = off [default]
colvars:       # atomsOfGroup = "" [default]
colvars:       # indexGroup = "" [default]
colvars:       # psfSegID =  [default]
colvars:       # atomsFile = "" [default]
colvars:       # dummyAtom = ( 0 , 0 , 0 ) [default]
colvars:       # enableFitGradients = on [default]
colvars:       # printAtomIDs = off [default]
colvars:       Atom group "group2" defined with 167 atoms requested.
colvars:     # cutoff = 2.5
colvars:     # cutoff3 = ( 4 , 4 , 4 ) [default]
colvars:     # expNumer = 6 [default]
colvars:     # expDenom = 12 [default]
colvars:     # group2CenterOnly = off [default]
colvars:     # tolerance = 0 [default]
colvars:   All components initialized.
colvars:   # timeStepFactor = 1 [default]
colvars:   # width = 0.2
colvars:   # lowerBoundary = 0
colvars:   # upperBoundary = 6
colvars:   # hardLowerBoundary = off [default]
colvars:   # hardUpperBoundary = off [default]
colvars:   # expandBoundaries = off [default]
colvars:   # extendedLagrangian = off [default]
colvars:   # outputValue = on [default]
colvars:   # outputVelocity = off [default]
colvars:   # outputTotalForce = off [default]
colvars:   # outputAppliedForce = off [default]
colvars:   # subtractAppliedForce = off [default]
colvars:   # runAve = off [default]
colvars:   # corrFunc = off [default]
colvars: ----------------------------------------------------------------------
colvars:   Initializing a new collective variable.
colvars:   # name = "cn_fe_o"
colvars:   Initializing a new "coordNum" component.
colvars:     # name = "" [default]
colvars:     # componentCoeff = 1 [default]
colvars:     # componentExp = 1 [default]
colvars:     # period = 0 [default]
colvars:     # wrapAround = 0 [default]
colvars:     # forceNoPBC = off [default]
colvars:     # scalable = on [default]
colvars:       Initializing atom group "group1".
colvars:       # name = "" [default]
colvars:       # centerToOrigin = off [default]
colvars:       # centerToReference = off [default]
colvars:       # rotateToReference = off [default]
colvars:       # atomsOfGroup = "" [default]
colvars:       # indexGroup = "" [default]
colvars:       # psfSegID =  [default]
colvars:       # atomsFile = "" [default]
colvars:       # dummyAtom = ( 0 , 0 , 0 ) [default]
colvars:       # enableFitGradients = on [default]
colvars:       # printAtomIDs = off [default]
colvars:       Atom group "group1" defined with 1 atoms requested.
colvars:       Initializing atom group "group2".
colvars:       # name = "" [default]
colvars:       # centerToOrigin = off [default]
colvars:       # centerToReference = off [default]
colvars:       # rotateToReference = off [default]
colvars:       # atomsOfGroup = "" [default]
colvars:       # indexGroup = "" [default]
colvars:       # psfSegID =  [default]
colvars:       # atomsFile = "" [default]
colvars:       # dummyAtom = ( 0 , 0 , 0 ) [default]
colvars:       # enableFitGradients = on [default]
colvars:       # printAtomIDs = off [default]
colvars:       Atom group "group2" defined with 56 atoms requested.
colvars:     # cutoff = 3
colvars:     # cutoff3 = ( 4 , 4 , 4 ) [default]
colvars:     # expNumer = 6 [default]
colvars:     # expDenom = 12 [default]
colvars:     # group2CenterOnly = off [default]
colvars:     # tolerance = 0 [default]
colvars:   All components initialized.
colvars:   # timeStepFactor = 1 [default]
colvars:   # width = 0.1
colvars:   # lowerBoundary = 0.5
colvars:   # upperBoundary = 7
colvars:   # hardLowerBoundary = off [default]
colvars:   # hardUpperBoundary = off [default]
colvars:   # expandBoundaries = off [default]
colvars:   # extendedLagrangian = off [default]
colvars:   # outputValue = on [default]
colvars:   # outputVelocity = off [default]
colvars:   # outputTotalForce = off [default]
colvars:   # outputAppliedForce = off [default]
colvars:   # subtractAppliedForce = off [default]
colvars:   # runAve = off [default]
colvars:   # corrFunc = off [default]
colvars: ----------------------------------------------------------------------
colvars: Collective variables initialized, 2 in total.
colvars: ----------------------------------------------------------------------
colvars:   Initializing a new "metadynamics" instance.
colvars:   # name = "meta2d"
colvars:   # colvars = { cn_fe_fe, cn_fe_o }
colvars:   # stepZeroData = off [default]
colvars:   # outputEnergy = off [default]
colvars:   # outputFreq = 0 [default]
colvars:   # timeStepFactor = 1 [default]
colvars:   # writeTISamples = off [default]
colvars:   # writeTIPMF = off [default]
colvars:   # hillWeight = 0.05
colvars:   # newHillFrequency = 300
colvars:   # gaussianSigmas =  [default]
colvars:   # hillWidth = 0.6
colvars:   Half-widths of the Gaussian hills (sigma's):
colvars:   cn_fe_fe: 0.06
colvars:   cn_fe_o: 0.03
colvars:   # multipleReplicas = off [default]
colvars:   # useGrids = on [default]
colvars:   Warning: gaussianSigmas is too narrow for the grid spacing along cn_fe_fe.
colvars:   Warning: gaussianSigmas is too narrow for the grid spacing along cn_fe_o.
colvars:   # gridsUpdateFrequency = 300 [default]
colvars:   # rebinGrids = off [default]
colvars:   # writeFreeEnergyFile = on [default]
colvars:   # keepHills = off [default]
colvars:   # keepFreeEnergyFiles = off [default]
colvars:   # writeHillsTrajectory = off [default]
colvars:   # wellTempered = off [default]
colvars:   # biasTemperature = 800
colvars:   # ebMeta = off [default]
colvars: ----------------------------------------------------------------------
colvars: Collective variables biases initialized, 1 in total.
colvars: ----------------------------------------------------------------------
colvars: Collective variables module (re)initialized.
colvars: ----------------------------------------------------------------------
colvars: Re-initialized atom group for variable "cn_fe_fe":0/0. 1 atoms: total mass = 55.845, total charge = 4.6538e-310.
colvars: Re-initialized atom group for variable "cn_fe_fe":0/1. 167 atoms: total mass = 9326.11, total charge = 3.3042e-308.
colvars: Re-initialized atom group for variable "cn_fe_o":0/0. 1 atoms: total mass = 55.845, total charge = 4.6538e-310.
colvars: Re-initialized atom group for variable "cn_fe_o":0/1. 56 atoms: total mass = 895.944, total charge = 1.39282e+253.
colvars: The restart output state file will be "rest.colvars.state".
colvars: The final output state file will be "out.colvars.state".
Per MPI rank memory allocation (min/avg/max) = 3.142 | 3.164 | 3.181 Mbytes
   Step          Temp         c_mTemp         PotEng         KinEng         TotEng         Press     
         0   150.40208      298.15        -2338.2108      6.5516151     -2331.6592     -12178.041    
        50   163.99746      325.10084     -2338.805       7.1438389     -2331.6612     -11862.191    
       100   155.95433      309.15652     -2338.4536      6.7934748     -2331.6601     -10815.969    
       150   148.13808      293.66197     -2338.1166      6.452994      -2331.6637     -8199.0896    
       200   152.82226      302.94765     -2338.327       6.6570398     -2331.67       -10065.284    
       250   166.4435       329.94976     -2338.927       7.2503901     -2331.6766     -12810.32     
       300   169.59982      336.20669     -2339.0652      7.3878814     -2331.6773     -10265.855    
       350   157.28279      311.79001     -2338.5269      6.8513437     -2331.6756     -11818.851    
       400   164.41056      325.91975     -2338.8352      7.1618338     -2331.6734     -12416.168    
       450   156.8462       310.92453     -2338.5085      6.8323255     -2331.6762     -12559.922    
       500   168.70605      334.43493     -2339.0273      7.3489484     -2331.6784     -11589.853    
       550   153.67847      304.64497     -2338.3754      6.6943371     -2331.6811     -10510.402    
       600   157.9056       313.02463     -2338.5629      6.8784735     -2331.6844     -11859.899    
       650   154.80624      306.8806      -2338.3739      6.7434631     -2331.6304     -12979.737    
       700   157.20165      311.62916     -2338.4826      6.8478092     -2331.6348     -11858.575    
       750   151.70703      300.73688     -2338.2552      6.6084598     -2331.6468     -8648.74      
       800   149.40275      296.16898     -2338.1523      6.5080837     -2331.6442     -11854.541    
       850   160.01097      317.19822     -2338.6739      6.9701849     -2331.7037     -11208.972    
       900   146.77466      290.95919     -2338.1033      6.3936025     -2331.7097     -9383.2311    
       950   157.48933      312.19944     -2338.573       6.8603407     -2331.7127     -11935.813    
      1000   151.86312      301.04631     -2338.3334      6.6152592     -2331.7181     -13172.184    
      1050   156.24501      309.73276     -2338.5385      6.8061372     -2331.7324     -11076.944    
      1100   159.18597      315.56277     -2338.6674      6.9342472     -2331.7331     -9376.8458    
      1150   170.7639       338.51432     -2339.187       7.4385898     -2331.7484     -11650.614    
      1200   151.87059      301.06111     -2338.3627      6.6155844     -2331.7472     -13168.851    
      1250   154.48246      306.23875     -2338.4466      6.7293591     -2331.7172     -9063.5658    
      1300   157.74693      312.71009     -2338.6026      6.8715618     -2331.7311     -10627.723    
      1350   146.4743       290.36377     -2338.1169      6.3805186     -2331.7364     -13498.597    
      1400   157.50007      312.22073     -2338.681       6.8608084     -2331.8202     -12677.208    
      1450   162.82521      322.77704     -2338.9349      7.0927752     -2331.8421     -10931.975    
      1500   155.08607      307.43533     -2338.6193      6.755653      -2331.8637     -11503.118    
      1550   179.84227      356.51085     -2339.7111      7.8340496     -2331.877      -10878.328    
      1600   161.24631      319.6471      -2338.8865      7.0239971     -2331.8625     -11552.133    
      1650   163.41814      323.95243     -2338.9892      7.1186035     -2331.8706     -11041.666    
      1700   158.81447      314.82633     -2338.8252      6.9180646     -2331.9072     -11421.631    
      1750   145.32513      288.08569     -2338.2809      6.3304597     -2331.9504     -11924.69     
      1800   159.61004      316.40344     -2338.9395      6.9527202     -2331.9868     -14780.943    
      1850   145.56998      288.57107     -2338.2225      6.3411256     -2331.8813     -12764.788    
      1900   156.20066      309.64485     -2338.6799      6.8042054     -2331.8757     -11986.174    
      1950   148.75619      294.88727     -2338.3683      6.4799192     -2331.8884     -14062.568    
      2000   183.78931      364.33528     -2339.9258      8.0059852     -2331.9199     -10180.772    
      2050   148.67491      294.72615     -2338.4154      6.4763787     -2331.939      -12552.362    
      2100   161.37054      319.89336     -2339.0036      7.0294087     -2331.9742     -12243.117    
      2150   154.68721      306.64464     -2338.7154      6.7382782     -2331.9772     -15186.106    
      2200   159.41086      316.00858     -2338.9484      6.9440435     -2332.0044     -11044.557    
      2250   158.80609      314.80973     -2338.9553      6.9176997     -2332.0376     -13023.041    
      2300   168.05024      333.13488     -2339.3392      7.3203808     -2332.0189     -12081.969    
      2350   151.93945      301.19761     -2338.6578      6.618584      -2332.0392     -11715.532    
      2400   158.79467      314.78708     -2339.0144      6.917202      -2332.0972     -13746.352    
      2450   159.39514      315.97743     -2338.9911      6.9433591     -2332.0477     -11475.681    
      2500   161.47071      320.09193     -2339.0585      7.0337721     -2332.0248     -13965.703    
      2550   157.85569      312.92569     -2338.9324      6.8762994     -2332.0561     -11531.147    
      2600   155.67276      308.59835     -2338.8925      6.7812094     -2332.1113     -13259.032    
      2650   163.40394      323.92429     -2339.2357      7.117985      -2332.1178     -12805.733    
      2700   170.69678      338.38127     -2339.601       7.435666      -2332.1654     -10509.486    
      2750   159.15557      315.5025      -2339.152       6.9329229     -2332.219      -9979.4598    
      2800   158.80174      314.80111     -2339.1618      6.9175102     -2332.2443     -12941.766    
      2850   140.36358      278.25016     -2338.379       6.1143314     -2332.2647     -11974.217    
      2900   138.99245      275.53209     -2338.348       6.054604      -2332.2934     -14305.851    
      2950   142.05826      281.60961     -2338.5382      6.1881528     -2332.35       -11666.252    
      3000   157.59016      312.39931     -2339.2381      6.8647327     -2332.3734     -12441.837    
      3050   151.84588      301.01213     -2338.9975      6.6145081     -2332.383      -11213.363    
      3100   160.07649      317.3281      -2339.3842      6.973039      -2332.4112     -12321.236    
      3150   152.17002      301.65469     -2339.0629      6.628628      -2332.4343     -12289.44     
      3200   143.7551       284.97335     -2338.7081      6.2620683     -2332.4461     -8462.6045    
      3250   155.68242      308.61751     -2339.2731      6.7816305     -2332.4915     -12885.172    
      3300   146.77583      290.96149     -2338.9634      6.3936532     -2332.5698     -11445.927    
      3350   158.49172      314.18653     -2339.4688      6.9040053     -2332.5648     -11950.779    
      3400   153.77517      304.83666     -2339.2576      6.6985493     -2332.559      -11794.603    
      3450   148.47074      294.32141     -2339.0473      6.4674848     -2332.5798     -11819.858    
      3500   154.42805      306.1309      -2339.3529      6.7269892     -2332.626      -12058.85     
      3550   140.54492      278.60964     -2338.7897      6.1222309     -2332.6675     -9066.2099    
      3600   150.13799      297.6265      -2339.2225      6.5401115     -2332.6824     -11035.825    
      3650   150.28389      297.91572     -2339.2022      6.5464669     -2332.6557     -13072.662    
      3700   150.02784      297.40813     -2339.2053      6.535313      -2332.67       -15594.431    
      3750   134.21938      266.07019     -2338.5431      5.8466862     -2332.6964     -14511.199    
      3800   141.53933      280.58091     -2338.9121      6.1655479     -2332.7465     -12075.031    
      3850   148.02031      293.4285      -2339.2067      6.4478637     -2332.7589     -11181.443    
      3900   153.59307      304.47567     -2339.459       6.6906168     -2332.7684     -9545.4933    
      3950   150.67791      298.69681     -2339.2963      6.5636307     -2332.7327     -11729.079    
      4000   160.49474      318.15722     -2339.7258      6.9912581     -2332.7345     -13580.441    
      4050   153.10078      303.49977     -2339.4168      6.6691722     -2332.7476     -12714.213    
      4100   149.34918      296.06278     -2339.2541      6.50575       -2332.7484     -8144.3172    
      4150   159.24088      315.67164     -2339.7189      6.9366394     -2332.7823     -14168.574    
      4200   145.10522      287.64976     -2339.0471      6.3208805     -2332.7262     -12946.578    
      4250   136.87895      271.3424      -2338.6471      5.9625388     -2332.6845     -11624.908    
      4300   145.16669      287.77162     -2339.0185      6.3235582     -2332.6949     -14707.131    
      4350   148.83102      295.0356      -2339.1945      6.4831786     -2332.7113     -14269.047    
      4400   142.76807      283.0167      -2338.9274      6.2190725     -2332.7083     -9912.3381    
      4450   141.24895      280.00527     -2338.9925      6.1528986     -2332.8396     -13525.965    
      4500   145.36199      288.15878     -2339.1402      6.3320657     -2332.8082     -13340.525    
      4550   143.06946      283.61416     -2338.991       6.2322013     -2332.7588     -10908.356    
      4600   135.65356      268.91323     -2338.6698      5.9091598     -2332.7607     -13755.508    
      4650   147.368        292.13539     -2339.1901      6.4194486     -2332.7707     -9375.5578    
      4700   136.16392      269.92496     -2338.7489      5.9313916     -2332.8175     -10721.396    
      4750   160.10228      317.37923     -2339.6953      6.9741624     -2332.7212     -12137.488    
      4800   162.25842      321.65346     -2339.7782      7.0680855     -2332.7102     -11493.777    
      4850   159.98476      317.14626     -2339.6458      6.9690431     -2332.6767     -10914.292    
      4900   147.17768      291.75811     -2339.0956      6.4111582     -2332.6844     -12994.153    
      4950   140.192        277.91002     -2338.8246      6.1068571     -2332.7178     -10824.135    
      5000   147.81462      293.02075     -2339.1537      6.4389038     -2332.7148     -8835.6017    
      5050   147.75832      292.90914     -2339.1025      6.4364513     -2332.666      -11827.395    
      5100   133.34096      264.32885     -2338.4614      5.8084216     -2332.653      -10271.995    
      5150   157.74879      312.71377     -2339.4569      6.8716427     -2332.5852     -9023.1876    
      5200   160.14561      317.46513     -2339.5691      6.97605       -2332.593      -12470.709    
      5250   149.83927      297.03431     -2339.1831      6.5270988     -2332.656      -9146.7397    
      5300   160.26041      317.69269     -2339.6953      6.9810506     -2332.7143     -11554.41     
      5350   154.68592      306.64208     -2339.4771      6.738222      -2332.7389     -11809.56     
      5400   163.77335      324.65657     -2339.8552      7.1340765     -2332.7211     -10798.924    
      5450   147.91895      293.22756     -2339.0081      6.4434483     -2332.5646     -11637.912    
      5500   149.55782      296.47638     -2339.0839      6.5148386     -2332.5691     -12972.949    
      5550   158.45437      314.11248     -2339.4787      6.9023782     -2332.5763     -10814.43     
      5600   151.01043      299.35597     -2339.1264      6.5781154     -2332.5482     -10722.015    
      5650   161.17661      319.50893     -2339.5315      7.0209611     -2332.5106     -11176.472    
      5700   152.56108      302.42991     -2339.159       6.6456628     -2332.5133     -11978.782    
      5750   158.14737      313.50391     -2339.4112      6.8890053     -2332.5222     -9342.3807    
      5800   141.33595      280.17774     -2338.6793      6.1566887     -2332.5226     -12591.753    
      5850   145.47913      288.39097     -2338.9253      6.337168      -2332.5881     -11904.337    
      5900   134.4863       266.59932     -2338.4755      5.8583133     -2332.6172     -11892.648    
      5950   157.15314      311.53299     -2339.4694      6.8456959     -2332.6237     -15712.505    
      6000   144.17715      285.81        -2338.8623      6.2804532     -2332.5818     -11096.675    
      6050   151.86539      301.05081     -2339.1937      6.6153581     -2332.5784     -13750.985    
      6100   159.87409      316.92687     -2339.5505      6.9642221     -2332.5863     -8745.5417    
      6150   150.60344      298.54918     -2339.1476      6.5603867     -2332.5872     -10010.431    
      6200   161.33991      319.83264     -2339.5722      7.0280743     -2332.5441     -11546.797    
      6250   156.47999      310.19856     -2339.1581      6.8163729     -2332.3418     -12298.919    
      6300   161.26804      319.69018     -2339.3706      7.0249438     -2332.3456     -13183.443    
      6350   143.97439      285.40805     -2338.5675      6.2716207     -2332.2958     -14039.945    
      6400   142.75065      282.98218     -2338.5271      6.2183139     -2332.3088     -10562.176    
      6450   159.16395      315.51912     -2339.3338      6.9332879     -2332.4005     -13478.223    
      6500   160.28043      317.73239     -2339.4381      6.9819228     -2332.4562     -11285.236    
      6550   145.9466       289.31768     -2338.8198      6.3575316     -2332.4623     -10025.237    
      6600   145.22719      287.89155     -2338.8095      6.3261935     -2332.4833     -10062.06     
      6650   156.56066      310.35849     -2339.2835      6.8198871     -2332.4636     -11264.706    
      6700   155.13618      307.53466     -2339.292       6.7578357     -2332.5341     -15013.885    
      6750   142.90619      283.2905      -2338.7394      6.2250891     -2332.5143     -10977.002    
      6800   149.85325      297.06204     -2339.0501      6.527708      -2332.5224     -13027.029    
      6850   149.9585       297.27067     -2339.0567      6.5322925     -2332.5244     -11586.713    
      6900   164.62674      326.34831     -2339.706       7.1712511     -2332.5348     -10300.956    
      6950   164.90673      326.90334     -2339.6628      7.1834475     -2332.4794     -13110.781    
      7000   158.77531      314.7487      -2339.4438      6.9163587     -2332.5274     -13645.402    
      7050   151.62098      300.5663      -2339.112       6.6047115     -2332.5073     -12783.193    
      7100   160.90116      318.96289     -2339.5109      7.0089621     -2332.5019     -10767.89     
      7150   148.12625      293.6385      -2338.9259      6.4524785     -2332.4734     -12941.932    
      7200   146.07399      289.5702      -2338.8454      6.3630806     -2332.4823     -12279.047    
      7250   153.77053      304.82747     -2339.148       6.6983472     -2332.4496     -13066.155    
      7300   154.04984      305.38114     -2339.1561      6.7105139     -2332.4456     -12632.94     
      7350   164.32868      325.75745     -2339.6781      7.1582673     -2332.5199     -9854.7598    
      7400   143.00456      283.48551     -2338.703       6.2293743     -2332.4736     -12008.345    
      7450   154.9555       307.17649     -2339.2925      6.7499652     -2332.5425     -9168.9223    
      7500   166.99574      331.04449     -2339.7247      7.2744459     -2332.4502     -10394.878    
      7550   164.17985      325.46242     -2339.5442      7.1517842     -2332.3924     -14064.361    
      7600   151.85989      301.0399      -2339.0244      6.6151184     -2332.4093     -12195.714    
      7650   143.46895      284.40609     -2338.669       6.2496033     -2332.4194     -11966.627    
      7700   158.18897      313.58637     -2339.2479      6.8908173     -2332.3571     -11188.452    
      7750   145.54447      288.52051     -2338.6604      6.3400144     -2332.3204     -11872.775    
      7800   155.91964      309.08776     -2339.0601      6.7919638     -2332.2681     -10497.096    
      7850   154.45129      306.17697     -2339.054       6.7280015     -2332.326      -14322.112    
      7900   143.28638      284.04417     -2338.5945      6.2416505     -2332.3529     -9561.9945    
      7950   154.3688       306.01343     -2339.0793      6.724408      -2332.3549     -11566.639    
      8000   146.78209      290.97391     -2338.7002      6.393926      -2332.3063     -11025.445    
      8050   163.87261      324.85336     -2339.472       7.1384007     -2332.3336     -11136.687    
      8100   149.31684      295.99867     -2338.852       6.5043414     -2332.3477     -10296.872    
      8150   161.4413       320.03364     -2339.3637      7.0324911     -2332.3312     -10390.024    
      8200   157.71124      312.63935     -2339.1948      6.8700072     -2332.3248     -12017.104    
      8250   146.91704      291.24143     -2338.7323      6.3998047     -2332.3325     -6935.2904    
      8300   169.34678      335.70509     -2339.7094      7.3768592     -2332.3325     -12587.679    
      8350   154.45769      306.18967     -2339.0691      6.7282805     -2332.3408     -8504.8968    
      8400   156.91516      311.06123     -2339.1934      6.8353294     -2332.3581     -10789.268    
      8450   149.27563      295.91699     -2338.924       6.5025464     -2332.4215     -11080.519    
      8500   164.16447      325.43192     -2339.5891      7.1511141     -2332.438      -8529.5157    
      8550   154.25933      305.79644     -2339.1675      6.7196396     -2332.4479     -11936.571    
      8600   151.52549      300.37699     -2339.0599      6.6005516     -2332.4594     -12618.306    
      8650   141.84781      281.19242     -2338.6185      6.1789855     -2332.4395     -13091.82     
      8700   145.62427      288.6787      -2338.8618      6.3434906     -2332.5183     -10537.97     
      8750   149.5949       296.54988     -2339.0875      6.5164537     -2332.5711     -10165.252    
      8800   157.9217       313.05655     -2339.4385      6.879175      -2332.5593     -9942.3196    
      8850   156.07123      309.38827     -2339.3503      6.7985673     -2332.5517     -10710.931    
      8900   145.05739      287.55494     -2338.8648      6.318797      -2332.546      -10710.509    
      8950   154.37573      306.02718     -2339.2877      6.7247101     -2332.563      -9710.697     
      9000   145.49841      288.42919     -2338.9236      6.3380079     -2332.5856     -11318.407    
      9050   158.54003      314.28229     -2339.5415      6.9061097     -2332.6354     -9104.5942    
      9100   147.92524      293.24004     -2339.0916      6.4437224     -2332.6478     -12704.536    
      9150   154.8296       306.92692     -2339.403       6.7444811     -2332.6585     -9887.676     
      9200   146.55091      290.51563     -2339.1148      6.3838558     -2332.7309     -11488.82     
      9250   157.18864      311.60336     -2339.5615      6.8472422     -2332.7143     -12948.814    
      9300   148.81868      295.01114     -2339.2145      6.4826411     -2332.7319     -13322.92     
      9350   140.26119      278.04718     -2339.0217      6.1098711     -2332.9118     -11154.062    
      9400   136.20729      270.01092     -2338.7066      5.9332806     -2332.7733     -10879.026    
      9450   143.43021      284.32929     -2339.0012      6.2479157     -2332.7533     -12696.718    
      9500   151.95672      301.23186     -2339.3704      6.6193365     -2332.7511     -12181.095    
      9550   147.57685      292.54939     -2339.2011      6.4285461     -2332.7725     -11662.663    
      9600   153.48678      304.26497     -2339.4857      6.6859867     -2332.7998     -13737.088    
      9650   148.48121      294.34216     -2339.319       6.4679407     -2332.851      -12411.582    
      9700   144.64351      286.73449     -2339.2152      6.300768      -2332.9144     -10054.493    
      9750   135.03618      267.68937     -2338.815       5.8822664     -2332.9327     -10353.623    
      9800   146.33661      290.09081     -2339.3473      6.3745207     -2332.9728     -11565.719    
      9850   153.17357      303.64407     -2339.6514      6.6723429     -2332.979      -11053.805    
      9900   150.49387      298.33197     -2339.4769      6.5556138     -2332.9213     -9999.4296    
      9950   137.14567      271.87113     -2338.9175      5.9741573     -2332.9433     -9455.841     
     10000   145.91968      289.2643      -2339.3132      6.3563588     -2332.9568     -12005.562    
     10050   151.42519      300.17818     -2339.5591      6.5961827     -2332.9629     -9254.0129    
     10100   152.36507      302.04135     -2339.5974      6.6371244     -2332.9603     -8992.7743    
     10150   143.80374      285.06976     -2339.1962      6.264187      -2332.932      -13915.824    
     10200   149.0756       295.52045     -2339.4774      6.4938327     -2332.9836     -9606.0248    
     10250   148.60146      294.58054     -2339.4         6.4731789     -2332.9269     -14470.998    
     10300   154.29179      305.86077     -2339.567       6.7210534     -2332.8459     -10711.931    
     10350   158.72691      314.65275     -2339.78        6.9142502     -2332.8658     -10977.707    
     10400   152.70907      302.72327     -2339.5356      6.6521092     -2332.8835     -10803.262    
     10450   142.29115      282.07128     -2339.128       6.1982977     -2332.9297     -12212.217    
     10500   148.99515      295.36098     -2339.5052      6.4903285     -2333.0149     -9986.469     
     10550   137.94278      273.45127     -2338.9957      6.0088796     -2332.9868     -11654.467    
     10600   136.97972      271.54214     -2338.9926      5.966928      -2333.0257     -9391.9875    
     10650   151.78044      300.88241     -2339.6364      6.6116577     -2333.0247     -10888.573    
     10700   141.53394      280.57021     -2339.2296      6.1653129     -2333.0643     -15391.629    
     10750   159.98862      317.15391     -2340.0626      6.9692114     -2333.0934     -11517.888    
     10800   142.55068      282.58576     -2339.3219      6.209603      -2333.1123     -10698.281    
     10850   148.81169      294.99729     -2339.6401      6.4823366     -2333.1578     -12306.563    
     10900   137.90384      273.37409     -2339.1826      6.0071836     -2333.1754     -11066.491    
     10950   140.59715      278.71317     -2339.3097      6.1245059     -2333.1852     -12982.948    
     11000   154.04107      305.36378     -2339.8875      6.7101322     -2333.1774     -10543.553    
     11050   138.69352      274.9395      -2339.2558      6.0415823     -2333.2142     -12517.288    
     11100   151.40448      300.13712     -2339.8066      6.5952805     -2333.2114     -11676.08     
     11150   139.81671      277.16607     -2339.2527      6.0905095     -2333.1622     -13591.215    
     11200   147.74088      292.87457     -2339.6297      6.4356916     -2333.1941     -10560.829    
     11250   150.29068      297.92918     -2339.7         6.5467627     -2333.1532     -11536.469    
     11300   139.33684      276.2148      -2339.2182      6.0696061     -2333.1486     -12989.103    
     11350   164.70533      326.50409     -2340.1827      7.1746741     -2333.008      -13141.287    
     11400   158.97419      315.14296     -2339.9628      6.9250221     -2333.0378     -13731.783    
     11450   151.79795      300.91712     -2339.6132      6.6124204     -2333.0008     -14318.529    
     11500   141.31716      280.14049     -2339.3114      6.1558701     -2333.1556     -10930.562    
     11550   147.17022      291.74333     -2339.6392      6.4108334     -2333.2284     -12110.201    
     11600   158.50977      314.2223      -2340.2505      6.9047914     -2333.3457     -11669.491    
     11650   155.43832      308.1336      -2340.1309      6.7709971     -2333.3599     -11797.831    
     11700   155.90344      309.05564     -2340.1686      6.7912581     -2333.3774     -12245.091    
     11750   147.69698      292.78753     -2339.8539      6.4337791     -2333.4201     -12570.444    
     11800   152.42463      302.15942     -2340.0331      6.639719      -2333.3933     -11549.149    
     11850   140.16886      277.86415     -2339.5245      6.1058492     -2333.4186     -12177.786    
     11900   136.86497      271.31468     -2339.3997      5.9619298     -2333.4378     -11463.026    
     11950   156.20741      309.65823     -2340.3746      6.8044994     -2333.5701     -11454.899    
     12000   154.85132      306.96997     -2340.3197      6.7454272     -2333.5743     -10857.814    
     12050   143.44956      284.36765     -2339.8673      6.2487586     -2333.6186     -13167.083    
     12100   157.78588      312.78729     -2340.4751      6.8732583     -2333.6018     -9924.4725    
     12150   137.47825      272.53041     -2339.6285      5.9886444     -2333.6399     -11753.989    
     12200   145.70719      288.84308     -2340.0184      6.3471028     -2333.6713     -12154.25     
     12250   126.18966      250.15245     -2339.176       5.4969062     -2333.6791     -10626.091    
     12300   149.78432      296.92538     -2340.1895      6.524705      -2333.6648     -13682.995    
     12350   140.85215      279.21867     -2339.835       6.1356138     -2333.6994     -11218.396    
     12400   143.36513      284.2003      -2339.9704      6.2450811     -2333.7253     -7073.8553    
     12450   148.5431       294.46485     -2340.2157      6.4706368     -2333.745      -11800.545    
     12500   146.29644      290.01118     -2340.0629      6.3727708     -2333.6901     -11487.944    
     12550   138.88634      275.32174     -2339.711       6.0499817     -2333.661      -10892.259    
     12600   138.37349      274.30509     -2339.6698      6.0276416     -2333.6422     -11454.843    
     12650   154.2178       305.7141      -2340.294       6.7178304     -2333.5762     -10948.676    
     12700   142.80916      283.09816     -2339.8154      6.2208626     -2333.5945     -11626.189    
     12750   142.39631      282.27975     -2339.8327      6.2028786     -2333.6298     -11462.63     
     12800   139.26292      276.06826     -2339.8026      6.066386      -2333.7362     -12700.82     
     12850   135.38725      268.38532     -2339.636       5.8975594     -2333.7385     -11268.61     
     12900   132.88281      263.42064     -2339.6187      5.7884642     -2333.8302     -13546.803    
     12950   128.39438      254.52298     -2339.3121      5.5929451     -2333.7192     -9411.4259    
     13000   140.20238      277.93061     -2339.7503      6.1073096     -2333.643      -11819.644    
     13050   142.45664      282.39935     -2339.8698      6.2055067     -2333.6643     -11378.794    
     13100   139.3278       276.19688     -2339.7467      6.0692123     -2333.6775     -9823.6101    
     13150   140.84795      279.21035     -2339.8401      6.135431      -2333.7047     -11407.474    
     13200   139.42109      276.38181     -2339.9137      6.073276      -2333.8404     -11355.078    
     13250   155.17523      307.61207     -2340.597       6.7595367     -2333.8374     -11631.134    
     13300   141.5573       280.61654     -2340.0485      6.1663308     -2333.8822     -12572.626    
     13350   148.72173      294.81897     -2340.3107      6.4784182     -2333.8323     -7671.9303    
     13400   141.3083       280.12293     -2339.862       6.1554842     -2333.7065     -9995.9412    
     13450   149.14062      295.64935     -2340.2057      6.4966653     -2333.709      -10971.554    
     13500   141.30294      280.1123      -2339.8225      6.1552506     -2333.6672     -13446.834    
     13550   129.59537      256.90377     -2339.294       5.6452611     -2333.6488     -10922.403    
     13600   133.56822      264.77936     -2339.5098      5.8183212     -2333.6915     -15354.542    
     13650   129.17054      256.0616      -2339.4097      5.6267551     -2333.783      -11442.275    
     13700   150.89011      299.11745     -2340.4073      6.572874      -2333.8345     -11350.777    
     13750   132.82862      263.31321     -2339.693       5.7861036     -2333.9068     -7741.6112    
     13800   158.86754      314.93153     -2340.8442      6.9203762     -2333.9238     -12214.618    
     13850   139.7998       277.13255     -2339.8887      6.0897728     -2333.7989     -14318.45     
     13900   145.01282      287.46659     -2339.9544      6.3168553     -2333.6376     -10745.559    
     13950   135.87035      269.34299     -2339.5514      5.9186033     -2333.6328     -10304.842    
     14000   142.31932      282.12711     -2339.834       6.1995246     -2333.6344     -13882.917    
     14050   152.65482      302.61573     -2340.2788      6.649746      -2333.629      -11860.744    
     14100   158.4609       314.12543     -2340.6087      6.9026628     -2333.706      -11682.501    
     14150   146.91346      291.23434     -2340.2247      6.3996487     -2333.825      -10578.013    
     14200   132.83251      263.32091     -2339.7036      5.7862729     -2333.9173     -12115.564    
     14250   135.46332      268.53611     -2339.848       5.9008728     -2333.9472     -11384.8      
     14300   148.85299      295.07917     -2340.4083      6.4841359     -2333.9242     -9121.5836    
     14350   126.24792      250.26794     -2339.3616      5.499444      -2333.8621     -10026.653    
     14400   125.17612      248.14326     -2339.2914      5.4527557     -2333.8387     -15145.076    
     14450   140.68732      278.89192     -2339.8627      6.1284336     -2333.7342     -9905.5751    
     14500   126.62962      251.02461     -2339.2457      5.5160711     -2333.7296     -11958.425    
     14550   134.34616      266.32151     -2339.5829      5.8522088     -2333.7307     -12058.262    
     14600   140.24206      278.00927     -2339.8761      6.1090381     -2333.767      -9939.6127    
     14650   140.06893      277.66605     -2339.8252      6.1014961     -2333.7237     -8849.5723    
     14700   141.05354      279.61791     -2339.8165      6.1443867     -2333.6721     -11388.046    
     14750   143.35634      284.18286     -2339.6477      6.244698      -2333.403      -10874.818    
     14800   142.06495      281.62287     -2339.4756      6.1884442     -2333.2872     -10384.077    
     14850   132.29722      262.25978     -2338.9873      5.7629554     -2333.2243     -10279.438    
     14900   143.28588      284.04318     -2339.467       6.2416287     -2333.2254     -12330.714    
     14950   149.15916      295.6861      -2339.712       6.4974727     -2333.2145     -12950.502    
     15000   147.59867      292.59265     -2339.7194      6.4294967     -2333.2899     -11422.364    
     15050   141.31064      280.12756     -2339.4776      6.155586      -2333.322      -10858.096    
     15100   149.27716      295.92003     -2339.9502      6.5026131     -2333.4475     -11071.434    
     15150   144.05601      285.56985     -2339.724       6.2751761     -2333.4489     -12498.369    
     15200   146.79199      290.99354     -2339.4836      6.3943574     -2333.0892     -11225.302    
     15250   164.03354      325.17237     -2340.118       7.1454108     -2332.9726     -12167.582    
     15300   154.30877      305.89444     -2339.6311      6.7217931     -2332.9093     -13642.4      
     15350   148.37571      294.13303     -2339.3494      6.4633453     -2332.886      -12197.144    
     15400   138.65001      274.85325     -2338.9151      6.039687      -2332.8754     -13742.804    
     15450   154.65174      306.57433     -2339.6273      6.7367331     -2332.8906     -13511.03     
     15500   134.23348      266.09814     -2338.9016      5.8473003     -2333.0543     -12344.681    
     15550   150.76799      298.87537     -2339.7028      6.5675545     -2333.1352     -11150.994    
     15600   144.84865      287.14114     -2339.4359      6.3097039     -2333.1262     -10946.237    
     15650   144.51291      286.4756      -2339.396       6.2950792     -2333.1009     -10897.494    
     15700   155.43246      308.122       -2339.7256      6.770742      -2332.9549     -10590.755    
     15750   154.79145      306.85128     -2339.5271      6.742819      -2332.7843     -14684.625    
     15800   138.18098      273.92346     -2338.8532      6.0192557     -2332.834      -13372.978    
     15850   138.61985      274.79346     -2338.8703      6.0383732     -2332.8319     -13876.935    
     15900   132.0431       261.75603     -2338.5097      5.7518857     -2332.7578     -12705.507    
     15950   143.11561      283.70565     -2339.0596      6.2342117     -2332.8254     -12040.51     
     16000   153.68549      304.65888     -2339.7207      6.6946428     -2333.0261     -12656.286    
     16050   141.74805      280.99467     -2339.18        6.1746399     -2333.0054     -9000.4732    
     16100   132.07219      261.81369     -2338.7343      5.7531529     -2332.9811     -10441.061    
     16150   166.3973       329.85817     -2339.9582      7.2483776     -2332.7098     -10527.904    
     16200   165.03421      327.15606     -2339.7375      7.1890007     -2332.5485     -9252.4416    
     16250   149.90651      297.16761     -2339.0611      6.5300278     -2332.531      -12587.324    
     16300   147.10237      291.60881     -2338.9315      6.4078775     -2332.5236     -10333.51     
     16350   144.42562      286.30255     -2338.8086      6.2912765     -2332.5173     -12905.81     
     16400   140.88118      279.27623     -2338.6762      6.1368786     -2332.5393     -9567.0987    
     16450   158.16381      313.53649     -2339.6069      6.8897212     -2332.7171     -9726.006     
     16500   148.65484      294.68636     -2339.1308      6.4755043     -2332.6553     -11012.462    
     16550   137.59483      272.76153     -2338.5934      5.993723      -2332.5997     -13595.604    
     16600   143.6613       284.7874      -2338.9076      6.2579823     -2332.6496     -8856.1586    
     16650   158.43169      314.06752     -2339.2931      6.9013903     -2332.3917     -12121.277    
     16700   152.90516      303.11199     -2338.9722      6.6606509     -2332.3115     -12649.591    
     16750   146.71196      290.83488     -2338.6283      6.3908709     -2332.2374     -13540.055    
     16800   143.06047      283.59635     -2338.4646      6.2318098     -2332.2328     -13118.045    
     16850   137.66568      272.90197     -2338.2162      5.9968092     -2332.2193     -13102.875    
     16900   154.31956      305.91583     -2338.9394      6.7222632     -2332.2171     -10949.899    
     16950   160.15682      317.48735     -2339.2402      6.9765383     -2332.2636     -9191.9034    
     17000   154.09185      305.46444     -2339.0865      6.7123442     -2332.3742     -11295.916    
     17050   160.9149       318.99012     -2339.6911      7.0095606     -2332.6816     -10311.105    
     17100   157.76982      312.75547     -2339.2784      6.8725589     -2332.4059     -10135.53     
     17150   151.99355      301.30486     -2338.9683      6.6209406     -2332.3474     -12208.636    
     17200   146.69355      290.79839     -2338.5891      6.3900691     -2332.1991     -12234.535    
     17250   154.65775      306.58625     -2338.9432      6.7369951     -2332.2062     -14383.92     
     17300   159.52101      316.22694     -2339.1058      6.9488419     -2332.157      -12220.569    
     17350   150.31838      297.98409     -2338.7126      6.5479693     -2332.1646     -14000.459    
     17400   142.00859      281.51114     -2338.3528      6.185989      -2332.1668     -14488.489    
     17450   147.1906       291.78371     -2338.5758      6.4117209     -2332.1641     -10859.263    
     17500   151.24953      299.82996     -2338.8776      6.5885309     -2332.2891     -10561.327    
     17550   154.17488      305.62904     -2338.971       6.7159611     -2332.2551     -15923.034    
     17600   154.56703      306.4064      -2338.9684      6.733043      -2332.2354     -14381.868    
     17650   146.82787      291.06467     -2338.5444      6.3959204     -2332.1485     -14830.94     
     17700   137.53745      272.64778     -2338.1012      5.9912235     -2332.11       -11460.064    
     17750   149.60435      296.56863     -2338.555       6.5168657     -2332.0381     -11320.956    
     17800   135.46567      268.54077     -2337.9252      5.9009751     -2332.0242     -15125.633    
     17850   158.68657      314.57279     -2338.9595      6.9124931     -2332.047      -17044.348    
     17900   147.01704      291.43966     -2338.5219      6.4041607     -2332.1178     -14065.472    
     17950   149.78181      296.92042     -2338.7409      6.524596      -2332.2163     -11982.313    
     18000   156.43366      310.10673     -2338.9633      6.8143549     -2332.149      -12644.227    
     18050   149.77458      296.90608     -2338.6219      6.5242808     -2332.0976     -11083.138    
     18100   143.60638      284.67852     -2338.3475      6.2555898     -2332.092      -12582.737    
     18150   150.80304      298.94485     -2338.7272      6.5690812     -2332.1581     -10166.278    
     18200   157.29487      311.81395     -2338.9911      6.8518697     -2332.1392     -13483.575    
     18250   157.14674      311.5203      -2338.9009      6.845417      -2332.0555     -10209.958    
     18300   158.56045      314.32277     -2338.9537      6.9069991     -2332.0467     -13425.577    
     18350   162.82518      322.77698     -2339.0855      7.0927738     -2331.9928     -15042.922    
     18400   157.82288      312.86064     -2338.9248      6.87487       -2332.0499     -11458.179    
     18450   150.43105      298.20743     -2338.6211      6.552877      -2332.0682     -9684.6496    
     18500   159.44873      316.08367     -2339.1513      6.9456935     -2332.2056     -10977.605    
     18550   163.23604      323.59145     -2339.2381      7.1106712     -2332.1274     -11811.978    
     18600   159.88351      316.94554     -2339.0902      6.9646325     -2332.1256     -9677.651     
     18650   147.63903      292.67267     -2338.5152      6.4312551     -2332.0839     -8187.8344    
     18700   150.04155      297.43532     -2338.6262      6.5359105     -2332.0903     -11814.413    
     18750   150.706        298.75249     -2338.6568      6.5648542     -2332.0919     -9040.1637    
     18800   159.28808      315.76519     -2339.0366      6.9386953     -2332.0979     -12062.469    
     18850   148.99698      295.3646      -2338.6111      6.4904082     -2332.1207     -11671.422    
     18900   154.51055      306.29443     -2338.8048      6.7305827     -2332.0742     -10959.475    
     18950   149.91431      297.18307     -2338.5538      6.5303676     -2332.0235     -15266.527    
     19000   163.39608      323.90869     -2339.1568      7.1176424     -2332.0391     -8296.8429    
     19050   155.82853      308.90714     -2338.8847      6.787995      -2332.0967     -7563.5432    
     19100   150.06044      297.47275     -2338.5907      6.536733      -2332.054      -9326.3007    
     19150   159.91634      317.01063     -2339.0056      6.9660627     -2332.0395     -11753.36     
     19200   138.54913      274.65328     -2338.0702      6.0352929     -2332.0349     -10502.223    
     19250   147.89428      293.17866     -2338.3967      6.4423737     -2331.9543     -11337.939    
     19300   152.33482      301.98138     -2338.6038      6.6358067     -2331.968      -10271.817    
     19350   142.91366      283.30531     -2338.1988      6.2254145     -2331.9733     -12621.317    
     19400   162.82355      322.77375     -2339.0971      7.0927029     -2332.0044     -8022.617     
     19450   174.09819      345.12407     -2339.5599      7.5838338     -2331.9761     -10439.972    
     19500   149.87656      297.10823     -2338.502       6.528723      -2331.9733     -10196.975    
     19550   150.33163      298.01035     -2338.5206      6.5485464     -2331.972      -9618.7337    
     19600   154.73546      306.74029     -2338.7487      6.74038       -2332.0083     -11307.624    
     19650   160.90527      318.97104     -2339.011       7.0091413     -2332.0019     -10090.634    
     19700   152.56952      302.44664     -2338.5376      6.6460304     -2331.8916     -15471.649    
     19750   154.91834      307.10283     -2338.611       6.7483466     -2331.8627     -11086.612    
     19800   153.38575      304.06468     -2338.5746      6.6815857     -2331.893      -9621.2399    
     19850   162.58969      322.31015     -2339.0606      7.0825156     -2331.9781     -10044.89     
     19900   166.38925      329.84222     -2339.3565      7.2480271     -2332.1085     -10095.943    
     19950   146.83796      291.08465     -2338.5191      6.3963596     -2332.1228     -11642.988    
     20000   148.00846      293.405       -2338.5658      6.4473474     -2332.1184     -13018.09     
     20050   153.83776      304.96074     -2338.8181      6.7012759     -2332.1168     -11607.086    
     20100   159.1066       315.40544     -2339.052       6.9307899     -2332.1213     -10519.053    
     20150   145.82985      289.08624     -2338.4599      6.3524459     -2332.1075     -11419.678    
     20200   163.39335      323.9033      -2339.2323      7.1175238     -2332.1148     -12779.529    
     20250   143.65758      284.78002     -2338.2776      6.2578201     -2332.0198     -10716.766    
     20300   161.73915      320.62408     -2338.9562      7.0454657     -2331.9107     -13196.909    
     20350   154.75418      306.77741     -2338.6082      6.7411957     -2331.867      -13338.748    
     20400   152.21079      301.7355      -2338.4474      6.6304037     -2331.817      -13866.197    
     20450   156.23011      309.70323     -2338.6815      6.8054883     -2331.876      -10080.27     
     20500   153.60804      304.50535     -2338.6341      6.6912689     -2331.9429     -14117.693    
     20550   158.05107      313.313       -2338.8365      6.8848102     -2331.9517     -12991.136    
     20600   153.65198      304.59245     -2338.5828      6.6931828     -2331.8896     -13655.987    
     20650   142.40183      282.29068     -2338.0577      6.2031189     -2331.8546     -11456.134    
     20700   155.17881      307.61917     -2338.6342      6.7596927     -2331.8745     -12434.82     
     20750   161.40913      319.96987     -2338.8907      7.0310897     -2331.8596     -9997.9153    
     20800   157.78355      312.78269     -2338.7365      6.8731571     -2331.8633     -14456.534    
     20850   158.16797      313.54474     -2338.7652      6.8899026     -2331.8753     -13177.811    
     20900   154.47524      306.22444     -2338.6098      6.7290446     -2331.8807     -9947.606     
     20950   146.6699       290.7515      -2338.3159      6.3890389     -2331.9269     -12076.688    
     21000   151.41034      300.14873     -2338.5345      6.5955356     -2331.939      -12474.982    
     21050   160.63865      318.44251     -2338.9799      6.9975272     -2331.9823     -11939.433    
     21100   162.66273      322.45495     -2339.0645      7.0856974     -2331.9788     -11405.224    
     21150   156.87165      310.97497     -2338.819       6.8334339     -2331.9856     -9361.1975    
     21200   162.72817      322.58467     -2339.0643      7.0885479     -2331.9757     -10373.441    
     21250   159.29924      315.78732     -2338.9025      6.9391815     -2331.9633     -9243.6538    
     21300   159.76685      316.71428     -2338.8948      6.9595508     -2331.9353     -9275.9923    
     21350   171.43937      339.85335     -2339.445       7.4680138     -2331.977      -10851.502    
     21400   169.57199      336.15153     -2339.2317      7.3866693     -2331.8451     -8025.6338    
     21450   162.43926      322.01195     -2338.9185      7.0759629     -2331.8426     -11904.881    
     21500   160.72655      318.61674     -2338.847       7.0013559     -2331.8457     -8552.4493    
     21550   157.0524       311.33328     -2338.7615      6.8413074     -2331.9202     -11243.778    
     21600   152.69412      302.69365     -2338.6762      6.6514582     -2332.0248     -10490.151    
     21650   143.17951      283.83231     -2338.2331      6.236995      -2331.9961     -12527.312    
     21700   150.45613      298.25715     -2338.5914      6.5539697     -2332.0374     -9212.7958    
     21750   168.1272       333.28744     -2339.404       7.3237331     -2332.0802     -12128.946    
     21800   159.00868      315.21133     -2338.9052      6.9265246     -2331.9786     -8724.5322    
     21850   158.9357       315.06666     -2338.9259      6.9233455     -2332.0025     -9160.7817    
     21900   150.14698      297.64432     -2338.6574      6.5405031     -2332.1169     -10906.927    
     21950   153.08939      303.47721     -2338.6909      6.6686764     -2332.0222     -12551.918    
     22000   146.17301      289.76651     -2338.4538      6.3673943     -2332.0864     -9126.3082    
     22050   154.72333      306.71625     -2338.9105      6.7398518     -2332.1707     -13304.818    
     22100   153.9829       305.24845     -2338.913       6.707598      -2332.2054     -11158.51     
     22150   152.28313      301.87891     -2338.8366      6.633555      -2332.2031     -11787.506    
     22200   143.35921      284.18856     -2338.4707      6.2448232     -2332.2259     -11369.143    
     22250   153.51931      304.32946     -2338.9539      6.6874038     -2332.2665     -9607.4459    
     22300   145.87148      289.16877     -2338.6827      6.3542594     -2332.3284     -12480.344    
     22350   151.64658      300.61705     -2338.8393      6.6058267     -2332.2335     -13467.87     
     22400   150.6501       298.64167     -2338.8268      6.5624192     -2332.2644     -11064.408    
     22450   154.77928      306.82716     -2339.0391      6.742289      -2332.2968     -12232.309    
     22500   164.07473      325.25402     -2339.4856      7.147205      -2332.3384     -10589.734    
     22550   158.69255      314.58464     -2339.2136      6.9127535     -2332.3009     -11619.28     
     22600   159.82357      316.82673     -2339.2821      6.9620217     -2332.3201     -12360.962    
     22650   169.02608      335.06934     -2339.7221      7.3628889     -2332.3592     -9082.8213    
     22700   159.08769      315.36794     -2339.3106      6.929966      -2332.3806     -13323.001    
     22750   154.82231      306.91246     -2339.124       6.7441634     -2332.3798     -8239.2804    
     22800   153.93184      305.14723     -2339.1205      6.7053738     -2332.4152     -7616.3767    
     22850   170.17072      337.33842     -2339.8278      7.4127503     -2332.415      -10151.265    
     22900   150.54351      298.43036     -2339.0714      6.5577758     -2332.5137     -11073.279    
     22950   141.84524      281.18733     -2338.6339      6.1788736     -2332.455      -11089.317    
     23000   142.9947       283.46597     -2338.7165      6.2289449     -2332.4875     -10421.857    
     23050   138.55971      274.67424     -2338.5256      6.0357535     -2332.4899     -8861.832     
     23100   150.72569      298.79151     -2339.097       6.5657118     -2332.5313     -8537.9437    
     23150   167.77232      332.58395     -2339.8686      7.3082744     -2332.5604     -10562.601    
     23200   155.588        308.43033     -2339.3492      6.7775174     -2332.5716     -11885.295    
     23250   154.53193      306.33683     -2339.3278      6.7315143     -2332.5963     -11198.113    
     23300   162.63745      322.40484     -2339.7057      7.0845963     -2332.6211     -10705.369    
     23350   160.00253      317.18149     -2339.6112      6.9698173     -2332.6414     -12692.611    
     23400   157.41235      312.04683     -2339.511       6.8569871     -2332.6541     -10611.734    
     23450   154.3029       305.88281     -2339.3936      6.7215376     -2332.672      -11788.257    
     23500   151.18545      299.70292     -2339.1957      6.5857394     -2332.6099     -14116.104    
     23550   138.5802       274.71487     -2338.6633      6.0366463     -2332.6267     -9928.2594    
     23600   155.24495      307.75028     -2339.3411      6.7625737     -2332.5785     -11644.022    
     23650   150.45879      298.26243     -2339.1294      6.5540856     -2332.5753     -11543.903    
     23700   154.07723      305.43544     -2339.3123      6.7117071     -2332.6006     -11800.657    
     23750   148.30779      293.99838     -2339.0199      6.4603864     -2332.5595     -13146.901    
     23800   165.33971      327.76166     -2339.7841      7.2023083     -2332.5818     -12314.905    
     23850   143.65546      284.77582     -2338.8603      6.2577278     -2332.6026     -11020.046    
     23900   154.8035       306.87518     -2339.3629      6.7433441     -2332.6195     -8640.1761    
     23950   147.22413      291.85019     -2339.0098      6.4131817     -2332.5966     -12365.272    
     24000   151.07315      299.4803      -2339.1912      6.5808474     -2332.6103     -8814.1329    
     24050   151.52886      300.38368     -2339.221       6.6006985     -2332.6203     -9780.7498    
     24100   144.90301      287.24892     -2338.9249      6.3120722     -2332.6128     -12836.123    
     24150   160.12388      317.42204     -2339.5846      6.9751032     -2332.6095     -8803.2801    
     24200   144.03173      285.52173     -2338.8971      6.2741186     -2332.623      -10368.282    
     24250   142.99766      283.47184     -2338.8587      6.2290739     -2332.6296     -8429.2521    
     24300   157.118        311.46334     -2339.4212      6.8441654     -2332.5771     -10821.13     
     24350   157.02486      311.27869     -2339.2765      6.8401078     -2332.4364     -9629.2298    
     24400   154.3335       305.94347     -2339.1295      6.7228706     -2332.4066     -8001.1754    
     24450   154.32018      305.91706     -2339.1518      6.7222902     -2332.4295     -11617.171    
     24500   160.73217      318.62789     -2339.417       7.0016008     -2332.4154     -11306.226    
     24550   167.93329      332.90305     -2339.7558      7.3152863     -2332.4405     -7726.0257    
     24600   157.36673      311.9564      -2339.3403      6.855         -2332.4853     -9922.6619    
     24650   150.73735      298.81464     -2339.0473      6.56622       -2332.4811     -12055.284    
     24700   153.47072      304.23312     -2339.152       6.685287      -2332.4668     -11398.511    
     24750   147.14245      291.68827     -2338.8597      6.4096235     -2332.4501     -10731.605    
     24800   143.32383      284.11841     -2338.6865      6.2432819     -2332.4433     -11035.157    
     24850   152.84142      302.98565     -2339.0976      6.6578747     -2332.4397     -10827.103    
     24900   146.2094       289.83863     -2338.8093      6.3689791     -2332.4403     -5343.2941    
     24950   139.56647      276.67        -2338.5476      6.0796087     -2332.468      -13419.078    
     25000   164.44304      325.98415     -2339.6011      7.163249      -2332.4379     -9491.1978    
     25050   158.0462       313.30335     -2339.2498      6.8845982     -2332.3652     -8489.3181    
     25100   142.13969      281.77103     -2338.4919      6.1917        -2332.3002     -10939.678    
     25150   149.30301      295.97126     -2338.815       6.5037389     -2332.3113     -8375.2359    
     25200   162.34416      321.82342     -2339.3849      7.0718202     -2332.3131     -11360.391    
     25250   157.83879      312.89219     -2339.1325      6.8755632     -2332.257      -9080.8572    
     25300   158.48266      314.16856     -2339.1056      6.9036105     -2332.202      -11457.694    
     25350   158.82435      314.84592     -2339.0541      6.9184949     -2332.1356     -8991.6182    
     25400   163.6014       324.31572     -2339.286       7.1265866     -2332.1594     -9827.9248    
     25450   160.40432      317.97797     -2339.3082      6.9873193     -2332.3208     -11377.616    
     25500   155.82102      308.89225     -2339.0815      6.7876677     -2332.2938     -10877.274    
     25550   155.84473      308.93925     -2339.0918      6.7887006     -2332.3031     -9271.746     
     25600   162.09162      321.3228      -2339.372       7.0608193     -2332.3112     -10637.985    
     25650   153.29076      303.87639     -2339.0004      6.6774481     -2332.3229     -12665.398    
     25700   151.88248      301.08468     -2338.9454      6.6161024     -2332.3293     -12908.208    
     25750   160.28492      317.74129     -2339.3295      6.9821185     -2332.3474     -11657.942    
     25800   150.26046      297.86926     -2338.8478      6.545446      -2332.3024     -10682.691    
     25850   159.00734      315.20867     -2339.1056      6.9264662     -2332.1791     -8501.8464    
     25900   147.2207       291.84339     -2338.5729      6.4130322     -2332.1599     -9902.0138    
     25950   161.34587      319.84446     -2339.1343      7.0283341     -2332.1059     -9894.6918    
     26000   160.69311      318.55045     -2339.107       6.9998992     -2332.1071     -12480.172    
     26050   160.49017      318.14816     -2339.1545      6.9910592     -2332.1634     -10423.318    
     26100   156.11244      309.46996     -2338.9818      6.8003625     -2332.1815     -11102.673    
     26150   149.48971      296.34137     -2338.6926      6.5118718     -2332.1807     -13148.503    
     26200   157.79122      312.7979      -2339.1373      6.8734912     -2332.2638     -8537.8834    
     26250   157.80901      312.83315     -2339.1873      6.8742658     -2332.313      -10256.459    
     26300   163.8853       324.8785      -2339.4652      7.1389532     -2332.3262     -11985.985    
     26350   164.48007      326.05755     -2339.5133      7.1648619     -2332.3484     -8984.8812    
     26400   148.18623      293.75741     -2338.7903      6.4550914     -2332.3352     -10194.368    
     26450   145.91932      289.2636      -2338.6607      6.3563434     -2332.3043     -5063.1883    
     26500   162.49517      322.12279     -2339.2432      7.0783985     -2332.1648     -10898.34     
     26550   152.45955      302.22863     -2338.7631      6.6412399     -2332.1219     -10212.846    
     26600   165.85474      328.78264     -2339.3959      7.2247435     -2332.1712     -11260.534    
     26650   149.95092      297.25564     -2338.6953      6.5319623     -2332.1634     -14171.088    
     26700   166.87578      330.8067      -2339.5727      7.2692208     -2332.3035     -10325.676    
     26750   148.08061      293.54803     -2338.6783      6.4504904     -2332.2278     -10672.27     
     26800   150.82304      298.98451     -2338.7684      6.5699527     -2332.1984     -10044.156    
     26850   160.38752      317.94468     -2339.1589      6.9865877     -2332.1723     -10972.786    
     26900   170.52074      338.03228     -2339.4445      7.4279973     -2332.0165     -10997.299    
     26950   177.70819      352.28035     -2339.5233      7.7410876     -2331.7822     -13074.827    
     27000   147.50844      292.41378     -2338.1938      6.4255661     -2331.7683     -11152.335    
     27050   146.69686      290.80495     -2338.1469      6.3902132     -2331.7566     -12385.597    
     27100   143.19561      283.86425     -2338.014       6.2376967     -2331.7763     -13907.433    
     27150   163.78828      324.68617     -2338.971       7.1347269     -2331.8363     -11724.939    
     27200   171.80611      340.58034     -2339.4336      7.4839889     -2331.9497     -12578.289    
     27250   165.71103      328.49775     -2339.3146      7.2184834     -2332.0962     -8984.8873    
     27300   146.33187      290.08141     -2338.3097      6.3743141     -2331.9353     -9498.3248    
     27350   143.87566      285.21233     -2338.1609      6.2673198     -2331.8936     -10778.28     
     27400   159.79607      316.77222     -2338.9692      6.9608238     -2332.0084     -9569.6826    
     27450   161.74518      320.63603     -2339.1472      7.0457282     -2332.1015     -8891.9141    
     27500   154.12276      305.52572     -2338.7577      6.7136907     -2332.044      -10323.179    
     27550   170.79341      338.57281     -2339.5415      7.4398751     -2332.1016     -10024.921    
     27600   152.28076      301.87422     -2338.7455      6.6334518     -2332.1121     -9516.6647    
     27650   160.78271      318.72808     -2339.1116      7.0038025     -2332.1078     -12849.981    
     27700   171.97304      340.91126     -2339.7796      7.4912605     -2332.2883     -8184.7195    
     27750   167.53692      332.1173      -2339.5101      7.2980201     -2332.2121     -10736.093    
     27800   155.82654      308.90321     -2339.0009      6.7879085     -2332.213      -7312.3544    
     27850   156.41493      310.06959     -2339.0677      6.8135388     -2332.2541     -7148.0416    
     27900   172.05189      341.06757     -2339.9116      7.4946955     -2332.4169     -11034.068    
     27950   153.3222       303.93872     -2339.0499      6.6788178     -2332.3711     -9369.8304    
     28000   147.73729      292.86744     -2338.8299      6.435535      -2332.3944     -11278.769    
     28050   144.08069      285.61877     -2338.7006      6.2762511     -2332.4243     -12412.116    
     28100   142.19012      281.87099     -2338.6345      6.1938966     -2332.4406     -12980.088    
     28150   166.06858      329.20654     -2339.8047      7.2340584     -2332.5706     -9785.4902    
     28200   161.53113      320.21172     -2339.6084      7.0364043     -2332.572      -11847.051    
     28250   156.44277      310.12479     -2339.3487      6.8147518     -2332.534      -7803.5117    
     28300   155.4785       308.21327     -2339.2978      6.7727475     -2332.5251     -8592.0751    
     28350   158.09593      313.40193     -2339.4325      6.8867644     -2332.5458     -10289.452    
     28400   163.24854      323.61623     -2339.5191      7.1112157     -2332.4079     -10740.38     
     28450   160.25002      317.6721      -2339.152       6.9805982     -2332.1714     -10000.713    
     28500   149.80643      296.96922     -2338.6735      6.5256683     -2332.1478     -11073.396    
     28550   148.01086      293.40977     -2338.5935      6.4474521     -2332.146      -14136.382    
     28600   165.33338      327.74911     -2339.3833      7.2020326     -2332.1813     -11889.311    
     28650   158.70328      314.60591     -2339.1645      6.9132208     -2332.2512     -10090.395    
     28700   154.55772      306.38795     -2339.1458      6.7326376     -2332.4132     -10780.497    
     28750   138.4536       274.4639      -2338.6329      6.0311313     -2332.6017     -13196.309    
     28800   157.01344      311.25605     -2339.4424      6.8396104     -2332.6028     -10271.728    
     28850   165.98798      329.04677     -2339.675       7.2305476     -2332.4444     -10357.388    
     28900   151.20713      299.7459      -2339.0518      6.5866837     -2332.4651     -8837.5997    
     28950   155.17052      307.60273     -2339.1837      6.7593315     -2332.4244     -11359.842    
     29000   153.71354      304.71449     -2339.1526      6.6958646     -2332.4567     -11005.937    
     29050   148.385        294.15145     -2338.9349      6.46375       -2332.4712     -11691.876    
     29100   146.24575      289.91069     -2338.8642      6.3705626     -2332.4936     -10620.925    
     29150   155.40247      308.06255     -2339.2365      6.7694357     -2332.4671     -7474.4083    
     29200   158.09321      313.39655     -2339.3672      6.8866461     -2332.4806     -10222.118    
     29250   150.00751      297.36784     -2339.1039      6.5344277     -2332.5695     -11806.449    
     29300   155.90741      309.0635      -2339.3982      6.7914309     -2332.6068     -8414.3829    
     29350   153.24666      303.78896     -2339.2907      6.6755268     -2332.6151     -11267.279    
     29400   159.13835      315.46838     -2339.5059      6.9321729     -2332.5737     -10136.25     
     29450   151.8511       301.02248     -2339.061       6.6147356     -2332.4462     -11460.017    
     29500   156.52227      310.28237     -2339.2175      6.8182146     -2332.3993     -11324.196    
     29550   147.37102      292.14138     -2338.8215      6.4195802     -2332.4019     -10140.012    
     29600   150.83479      299.00779     -2338.9906      6.5704644     -2332.4201     -14335.961    
     29650   152.7946       302.89282     -2339.0918      6.655835      -2332.4359     -8681.3359    
     29700   157.91701      313.04724     -2339.4616      6.8789704     -2332.5826     -10106.226    
     29750   157.36918      311.96127     -2339.5375      6.8551069     -2332.6824     -14533.125    
     29800   146.26513      289.94912     -2339.1009      6.3714071     -2332.7295     -9864.0679    
     29850   133.82907      265.29646     -2338.5917      5.8296839     -2332.7621     -12464.227    
     29900   135.50775      268.62418     -2338.6689      5.9028081     -2332.766      -10056.439    
     29950   143.05342      283.58236     -2339.0148      6.2315025     -2332.7833     -13288.718    
     30000   143.33322      284.13703     -2339.0468      6.2436909     -2332.8032     -11215.269    
     30050   159.10897      315.41014     -2339.6698      6.9308932     -2332.7389     -11126.338    
     30100   146.56613      290.54579     -2339.1281      6.3845185     -2332.7436     -9216.6868    
     30150   147.63226      292.65925     -2339.2655      6.4309601     -2332.8345     -8327.195     
     30200   150.87597      299.08943     -2339.2902      6.5722584     -2332.7179     -8944.0773    
     30250   152.84683      302.99635     -2339.3944      6.65811       -2332.7363     -8861.2927    
     30300   155.00671      307.27801     -2339.4919      6.752196      -2332.7397     -9957.194     
     30350   148.85868      295.09044     -2339.3026      6.4843836     -2332.8182     -12854.028    
     30400   151.60469      300.53401     -2339.4451      6.6040018     -2332.8411     -8507.2019    
     30450   143.71222      284.88835     -2339.0311      6.2602006     -2332.7708     -10882.44     
     30500   157.83075      312.87625     -2339.6432      6.875213      -2332.7679     -10301.426    
     30550   147.77594      292.94407     -2339.1783      6.4372189     -2332.7411     -10791.231    
     30600   152.84059      302.984       -2339.4061      6.6578384     -2332.7483     -11209.83     
     30650   149.24739      295.86101     -2339.3092      6.5013163     -2332.8079     -15037.311    
     30700   152.99581      303.2917      -2339.4315      6.6645999     -2332.7669     -9767.7356    
     30750   141.59104      280.68341     -2338.8897      6.1678003     -2332.7219     -13664.306    
     30800   141.7382       280.97514     -2338.8181      6.174211      -2332.6439     -12071.512    
     30850   150.87801      299.09346     -2339.2284      6.5723469     -2332.6561     -12119.512    
     30900   153.22431      303.74466     -2339.3655      6.6745535     -2332.6909     -11740.477    
     30950   155.14874      307.55955     -2339.5178      6.7583827     -2332.7595     -10358.934    
     31000   158.05635      313.32347     -2339.5637      6.8850403     -2332.6786     -12094.888    
     31050   159.40793      316.00278     -2339.6373      6.943916      -2332.6934     -10628.121    
     31100   152.32164      301.95525     -2339.3806      6.6352325     -2332.7454     -9166.8674    
     31150   158.92702      315.04944     -2339.6805      6.9229672     -2332.7576     -12551.525    
     31200   151.87311      301.0661      -2338.8929      6.615694      -2332.2772     -9523.5027    
     31250   149.98134      297.31594     -2338.6423      6.5332873     -2332.109      -11398.143    
[...]
    191700   137.57961      272.73135     -2341.5513      5.99306       -2335.5583     -8327.9049    
    191750   136.7229       271.03304     -2341.5058      5.9557409     -2335.55       -12089.452    
    191800   138.33499      274.22878     -2341.5468      6.0259648     -2335.5208     -11934.903    
    191850   147.92924      293.24797     -2341.9347      6.4438968     -2335.4908     -8266.6411    
    191900   153.3118       303.9181      -2342.1881      6.6783645     -2335.5097     -8032.4927    
    191950   141.19479      279.8979      -2341.649       6.1505394     -2335.4984     -10512.894    
    192000   140.47517      278.47136     -2341.6258      6.1191922     -2335.5066     -6681.1801    
    192050   145.28376      288.00369     -2341.8655      6.3286578     -2335.5369     -10792.776    
    192100   141.35311      280.21175     -2341.7107      6.157436      -2335.5532     -9743.932     
    192150   150.40914      298.164       -2342.1073      6.5519227     -2335.5554     -10870.74     
    192200   149.11444      295.59744     -2342.0521      6.4955246     -2335.5565     -10891.59     
    192250   143.07372      283.62261     -2341.8442      6.2323871     -2335.6118     -12104.565    
    192300   134.80322      267.22757     -2341.4847      5.8721186     -2335.6125     -13498.486    
    192350   136.74172      271.07034     -2341.5389      5.9565606     -2335.5823     -16226.103    
    192400   147.12501      291.65369     -2342.0143      6.4088638     -2335.6054     -11241.452    
    192450   145.78472      288.99677     -2341.9893      6.35048       -2335.6388     -11850.564    
    192500   144.63402      286.71567     -2341.9586      6.3003546     -2335.6582     -13778.529    
    192550   143.68195      284.82834     -2341.9229      6.2588819     -2335.664      -14240.527    
    192600   143.67697      284.81846     -2341.9407      6.2586648     -2335.682      -12863.028    
    192650   138.08628      273.73575     -2341.7066      6.0151309     -2335.6915     -12914.825    
    192700   149.09488      295.55868     -2342.1696      6.4946728     -2335.6749     -13303.027    
    192750   145.50582      288.44389     -2342.0296      6.3383307     -2335.6913     -12174.141    
    192800   137.29116      272.15953     -2341.673       5.9804946     -2335.6925     -14132.514    
    192850   152.13365      301.5826      -2342.3228      6.6270437     -2335.6958     -11709.914    
    192900   144.00485      285.46843     -2341.9996      6.2729474     -2335.7267     -13222.581    
    192950   143.9733       285.4059      -2342.0322      6.2715734     -2335.7607     -13186.764    
    193000   140.14749      277.82179     -2341.8386      6.1049185     -2335.7337     -15964.346    
    193050   133.37952      264.40529     -2341.5598      5.8101012     -2335.7497     -10808.865    
    193100   144.55938      286.5677      -2342.0327      6.2971031     -2335.7356     -11514.701    
    193150   151.47873      300.2843      -2342.3705      6.5985146     -2335.772      -14059.158    
    193200   143.62806      284.72151     -2342.0373      6.2565344     -2335.7808     -14236.648    
    193250   150.38484      298.11583     -2342.2913      6.5508643     -2335.7405     -10457.398    
    193300   158.01517      313.24184     -2342.6452      6.8832466     -2335.762      -9706.1542    
    193350   152.6472       302.60062     -2342.389       6.6494141     -2335.7396     -10840.545    
    193400   149.76476      296.88661     -2342.2927      6.523853      -2335.7689     -9130.0627    
    193450   146.29067      289.99974     -2342.2046      6.3725195     -2335.8321     -9599.4124    
    193500   136.96065      271.50434     -2341.7761      5.9660973     -2335.81       -9685.594     
    193550   145.84154      289.1094      -2342.1486      6.352955      -2335.7957     -8466.7029    
    193600   144.32642      286.10591     -2342.0248      6.2869556     -2335.7378     -10989.659    
    193650   130.71012      259.11359     -2341.489       5.6938201     -2335.7951     -14534.907    
    193700   139.79331      277.11967     -2341.8449      6.08949       -2335.7554     -10895.922    
    193750   146.68751      290.78641     -2342.216       6.3898059     -2335.8262     -10770.99     
    193800   136.59668      270.78282     -2341.731       5.9502426     -2335.7807     -13437.906    
    193850   137.27556      272.12861     -2341.7705      5.9798152     -2335.7907     -12806.634    
    193900   149.22894      295.82443     -2342.3189      6.5005126     -2335.8184     -10691.908    
    193950   142.62105      282.72527     -2342.0621      6.2126685     -2335.8494     -12470.523    
    194000   148.1204       293.6269      -2342.2984      6.4522235     -2335.8462     -13128.489    
    194050   136.21683      270.02983     -2341.8018      5.9336961     -2335.8681     -13359.878    
    194100   139.86657      277.2649      -2341.9631      6.0926811     -2335.8705     -10715.222    
    194150   142.92237      283.32259     -2342.0745      6.2257942     -2335.8487     -16095.411    
    194200   146.43539      290.28662     -2342.2573      6.3788234     -2335.8785     -12518.303    
    194250   140.23724      277.9997      -2342.0584      6.1088278     -2335.9496     -11822.144    
    194300   143.33374      284.13807     -2342.1414      6.2437137     -2335.8977     -12866.815    
    194350   136.1054       269.80894     -2341.8511      5.9288422     -2335.9222     -14749.061    
    194400   136.44829      270.48866     -2341.8819      5.9437786     -2335.9381     -12215.546    
    194450   142.65837      282.79923     -2342.1965      6.2142939     -2335.9822     -11559.429    
    194500   136.06467      269.72819     -2341.8744      5.9270679     -2335.9473     -13475.655    
    194550   142.28139      282.05194     -2342.1936      6.1978726     -2335.9958     -14458.995    
    194600   142.57087      282.62578     -2342.2258      6.2104825     -2336.0153     -11160.448    
    194650   143.32448      284.1197      -2342.2186      6.2433101     -2335.9753     -9277.2954    
    194700   145.56047      288.55222     -2342.3314      6.3407114     -2335.9907     -14431.137    
    194750   147.16706      291.73705     -2342.4188      6.4106956     -2336.0081     -13665.241    
    194800   135.04263      267.70216     -2341.9185      5.8825474     -2336.036      -12257.475    
    194850   131.22929      260.14277     -2341.7679      5.7164356     -2336.0514     -13347.131    
    194900   149.82586      297.00773     -2342.5839      6.5265145     -2336.0574     -12368.647    
    194950   147.58353      292.56265     -2342.4653      6.4288375     -2336.0365     -12366.03     
    195000   147.94826      293.28566     -2342.5257      6.4447251     -2336.081      -10154.592    
    195050   156.05697      309.36        -2342.8904      6.7979462     -2336.0924     -10745.655    
    195100   145.97081      289.36567     -2342.4579      6.3585863     -2336.0993     -10872.636    
    195150   137.9595       273.48441     -2342.1272      6.0096079     -2336.1176     -12541.898    
    195200   151.32917      299.98783     -2342.7013      6.5920001     -2336.1093     -8383.8325    
    195250   136.66129      270.9109      -2342.0881      5.9530571     -2336.1351     -10491.493    
    195300   137.14999      271.87968     -2342.1013      5.9743452     -2336.127      -8893.3653    
    195350   135.80484      269.21312     -2342.0265      5.9157497     -2336.1107     -6395.1349    
    195400   147.06482      291.53437     -2342.5805      6.4062418     -2336.1743     -7559.4445    
    195450   151.48898      300.30463     -2342.862       6.5989614     -2336.2631     -12603.69     
    195500   137.28191      272.14119     -2342.2545      5.9800916     -2336.2744     -11671.008    
    195550   135.04932      267.71542     -2342.1283      5.8828387     -2336.2454     -8701.2708    
    195600   130.12464      257.95296     -2341.8911      5.6683163     -2336.2228     -10973.292    
    195650   137.15768      271.89493     -2342.2029      5.9746803     -2336.2282     -10511.933    
    195700   133.44953      264.54407     -2342.0165      5.8131509     -2336.2034     -13602.996    
    195750   144.53912      286.52755     -2342.5432      6.2962207     -2336.2469     -12196.264    
    195800   139.98508      277.49983     -2342.3703      6.0978436     -2336.2725     -10638.653    
    195850   143.66835      284.80137     -2342.5644      6.2582894     -2336.3061     -9549.7887    
    195900   127.81805      253.38048     -2341.8799      5.5678397     -2336.3121     -13059.449    
    195950   147.84109      293.07322     -2342.6873      6.4400567     -2336.2472     -12412.779    
    196000   141.8456       281.18804     -2342.4397      6.1788892     -2336.2608     -11904.135    
    196050   143.23928      283.9508      -2342.5316      6.2395988     -2336.292      -13274.046    
    196100   152.44713      302.20402     -2342.9465      6.6406991     -2336.3058     -9312.2193    
    196150   132.99985      263.65264     -2342.116       5.7935623     -2336.3224     -10783.111    
    196200   147.50414      292.40526     -2342.784       6.4253789     -2336.3587     -11885.5      
    196250   141.20632      279.92076     -2342.4178      6.1510416     -2336.2668     -11073.874    
    196300   143.97471      285.40869     -2342.5725      6.2716346     -2336.3009     -11714.095    
    196350   143.52428      284.51578     -2342.5824      6.2520138     -2336.3304     -11909.111    
    196400   139.44342      276.42607     -2342.4518      6.0742486     -2336.3775     -15243.877    
    196450   145.62014      288.67052     -2342.7164      6.3433108     -2336.3731     -12276.115    
    196500   141.40012      280.30495     -2342.5706      6.159484      -2336.4111     -15346.995    
    196550   142.37306      282.23366     -2342.6125      6.2018659     -2336.4106     -14276.732    
    196600   140.70123      278.9195      -2342.4583      6.1290397     -2336.3292     -12141.09     
    196650   128.14633      254.03126     -2341.8728      5.58214       -2336.2907     -10566.007    
    196700   142.86399      283.20686     -2342.5114      6.2232512     -2336.2881     -13392.635    
    196750   130.29761      258.29585     -2341.9226      5.675851      -2336.2467     -13653.643    
    196800   128.23824      254.21345     -2341.8575      5.5861436     -2336.2714     -7779.6875    
    196850   137.62518      272.82169     -2342.2286      5.995045      -2336.2336     -14371.002    
    196900   131.88366      261.43997     -2342.0227      5.7449406     -2336.2777     -13019.521    
    196950   135.99607      269.59221     -2342.1323      5.9240797     -2336.2083     -13804.936    
    197000   141.62043      280.74168     -2342.415       6.1690807     -2336.2459     -11334.962    
    197050   145.13591      287.71059     -2342.577       6.3222171     -2336.2548     -11391.171    
    197100   136.6685       270.9252      -2342.1683      5.9533712     -2336.2149     -12546.785    
    197150   142.28303      282.05518     -2342.3782      6.197944      -2336.1802     -13176.923    
    197200   129.95844      257.6235      -2341.8384      5.6610768     -2336.1773     -11647.223    
    197250   136.33469      270.26347     -2342.1629      5.9388303     -2336.2241     -11718.633    
    197300   144.24479      285.94409     -2342.531       6.2833997     -2336.2476     -11799.642    
    197350   143.10753      283.68964     -2342.4916      6.2338599     -2336.2577     -10825.863    
    197400   131.45104      260.58236     -2341.981       5.7260953     -2336.2549     -8099.0194    
    197450   139.97241      277.47472     -2342.2774      6.0972917     -2336.1801     -12569.04     
    197500   149.45902      296.28052     -2342.6988      6.5105348     -2336.1883     -13220.496    
    197550   137.3754       272.32654     -2342.244       5.9841645     -2336.2598     -10917.062    
    197600   147.97242      293.33356     -2342.7427      6.4457774     -2336.2969     -11012.447    
    197650   133.09532      263.8419      -2342.0006      5.7977213     -2336.2028     -9294.0581    
    197700   125.38606      248.55942     -2341.6785      5.4619005     -2336.2165     -9716.4122    
    197750   149.34832      296.06107     -2342.7064      6.5057125     -2336.2007     -9732.6168    
    197800   142.75006      282.98101     -2342.4051      6.2182882     -2336.1868     -13520.265    
    197850   156.63691      310.50964     -2343.0334      6.8232087     -2336.2102     -12896.904    
    197900   143.07734      283.62979     -2342.4349      6.2325446     -2336.2024     -12867.525    
    197950   152.12772      301.57084     -2342.8377      6.6267854     -2336.211      -10969.751    
    198000   146.1348       289.69075     -2342.5816      6.3657296     -2336.2159     -14459.053    
    198050   134.36546      266.35977     -2342.0393      5.8530494     -2336.1862     -16279.641    
    198100   135.60523      268.81743     -2342.1053      5.9070546     -2336.1982     -14984.22     
    198150   143.82623      285.11435     -2342.4488      6.2651668     -2336.1836     -13439.966    
    198200   131.36248      260.40681     -2341.9161      5.7222377     -2336.1939     -15066.289    
    198250   141.42835      280.36091     -2342.4033      6.1607136     -2336.2426     -13149.337    
    198300   150.41469      298.175       -2342.7477      6.5521644     -2336.1955     -12537.66     
    198350   146.01183      289.44698     -2342.5154      6.3603731     -2336.155      -9724.1738    
    198400   138.33763      274.23401     -2342.1968      6.0260798     -2336.1708     -12438.081    
    198450   136.45414      270.50026     -2342.1121      5.9440335     -2336.1681     -13646.642    
    198500   153.79431      304.8746      -2342.8673      6.6993829     -2336.1679     -12785.355    
    198550   149.54712      296.45518     -2342.7161      6.5143726     -2336.2018     -11661.64     
    198600   134.24081      266.11267     -2342.0156      5.8476197     -2336.168      -11812.352    
    198650   158.08702      313.38427     -2343.059       6.8863763     -2336.1726     -13422.722    
    198700   140.94805      279.40879     -2342.2713      6.1397914     -2336.1315     -11909.253    
    198750   146.98964      291.38535     -2342.5366      6.402967      -2336.1336     -12823.124    
    198800   132.68698      263.03242     -2341.9604      5.7799335     -2336.1804     -16026.164    
    198850   144.82238      287.08908     -2342.464       6.3085599     -2336.1554     -13349.933    
    198900   123.09658      244.02087     -2341.4937      5.3621695     -2336.1315     -12904.653    
    198950   150.71186      298.76411     -2342.6535      6.5651096     -2336.0884     -12867.648    
    199000   141.7533       281.00508     -2342.2669      6.1748688     -2336.092      -15028.478    
    199050   146.0091       289.44157     -2342.4702      6.3602541     -2336.11       -13898.649    
    199100   125.52467      248.83419     -2341.5703      5.4679384     -2336.1023     -14750.869    
    199150   143.29826      284.06772     -2342.3332      6.242168      -2336.091      -16167.072    
    199200   136.72562      271.03843     -2342.0406      5.9558594     -2336.0848     -12190.13     
    199250   136.86237      271.30952     -2342.0378      5.9618163     -2336.076      -13019.671    
    199300   151.09351      299.52066     -2342.6488      6.5817342     -2336.0671     -14276.206    
    199350   147.74151      292.87581     -2342.4775      6.4357189     -2336.0418     -12305.118    
    199400   154.21584      305.71023     -2342.7382      6.7177453     -2336.0205     -15566.932    
    199450   141.52639      280.55525     -2342.1862      6.164984      -2336.0212     -15363.232    
    199500   143.58229      284.63077     -2342.2732      6.2545404     -2336.0186     -13871.975    
    199550   154.3102       305.89729     -2342.7147      6.7218557     -2335.9929     -12731.17     
    199600   146.65372      290.71943     -2342.373       6.3883342     -2335.9847     -14116.555    
    199650   151.52872      300.3834      -2342.5824      6.6006922     -2335.9817     -12689.353    
    199700   139.21625      275.97575     -2342.0277      6.0643531     -2335.9633     -15928.722    
    199750   144.46925      286.38905     -2342.2832      6.2931772     -2335.99       -12000.003    
    199800   146.90624      291.22001     -2342.3558      6.399334      -2335.9564     -12391.712    
    199850   145.86838      289.16262     -2342.2796      6.3541244     -2335.9254     -11325.18     
    199900   155.08053      307.42434     -2342.6635      6.7554116     -2335.9081     -13265.183    
    199950   148.67798      294.73223     -2342.3563      6.4765123     -2335.8798     -13728.447    
    200000   146.9941       291.39418     -2342.2995      6.4031611     -2335.8963     -11647.965    
colvars: Saving collective variables state to "out.colvars.state".
Loop time of 1012.43 on 4 procs for 200000 steps with 338 atoms

Performance: 8.534 ns/day, 2.812 hours/ns, 197.544 timesteps/s, 66.770 katom-step/s
139.7% CPU use with 4 MPI tasks x 1 OpenMP threads

MPI task timing breakdown:
Section |  min time  |  avg time  |  max time  |%varavg| %total
---------------------------------------------------------------
Pair    | 820.91     | 864.52     | 924.87     | 134.0 | 85.39
Neigh   | 0.13584    | 1.3793     | 2.2931     |  70.4 |  0.14
Comm    | 11.952     | 51.001     | 97.109     | 453.3 |  5.04
Output  | 39.16      | 45.504     | 52.617     |  87.9 |  4.49
Modify  | 19.026     | 41.215     | 105.26     | 576.1 |  4.07
Other   |            | 8.813      |            |       |  0.87

Nlocal:           84.5 ave         117 max           8 min
Histogram: 1 0 0 0 0 0 0 0 1 2
Nghost:        1155.75 ave        1670 max         716 min
Histogram: 1 0 0 1 0 1 0 0 0 1
Neighs:              0 ave           0 max           0 min
Histogram: 4 0 0 0 0 0 0 0 0 0
FullNghs:      15101.5 ave       23421 max         625 min
Histogram: 1 0 0 0 0 1 0 0 0 2

Total # of neighbors = 60406
Ave neighs/atom = 178.71598
Neighbor list builds = 2403
Dangerous builds = 0
write_data final.data
System init for write_data ...
Generated 0 of 6 mixed pair_coeff terms from geometric mixing rule

CITE-CITE-CITE-CITE-CITE-CITE-CITE-CITE-CITE-CITE-CITE-CITE-CITE

Your simulation uses code contributions which should be cited:

- Colvars module (Fiorin2013, plus other works listed for specific features)


% Colvars module:
% Colvars-LAMMPS interface:
% Metadynamics colvar bias implementation:
% Optimal rotation via flexible fitting:
% coordNum colvar component:

@article{Fiorin2013,
  author = {Fiorin, Giacomo and Klein, Michael L.{} and H\'enin, J\'er\^ome},
  title = {Using collective variables to drive molecular dynamics simulations},
  journal = {Mol. Phys.},
  year = {2013},
  volume = {111},
  number = {22-23},
  pages = {3345--3362},
  publisher = {Taylor & Francis},
  doi = {10.1080/00268976.2013.813594},
  url = {https://doi.org/10.1080/00268976.2013.813594}
}


% LAMMPS engine:

@article{Thompson2022,
  title = {{LAMMPS} - a flexible simulation tool for particle-based materials modeling at the atomic, meso, and continuum scales},
  author = {Thompson, Aidan P. and Aktulga, H. Metin and Berger, Richard and Bolintineanu, Dan S. and Brown, W. Michael and Crozier, Paul S. and {in't Veld}, Pieter J. and Kohlmeyer, Axel and Moore, Stan G. and Nguyen, Trung Dac and Shan, Ray and Stevens, Mark J. and Tranchida, Julien and Trott, Christian and Plimpton, Steven J.},
  journal = {Comp. Phys. Comm.},
  volume = {271},
  pages = {108171},
  year = {2022},
  doi = {10.1016/j.cpc.2021.108171},
  url = {https://doi.org/10.1016/j.cpc.2021.108171}
}

CITE-CITE-CITE-CITE-CITE-CITE-CITE-CITE-CITE-CITE-CITE-CITE-CITE

Total wall time: 0:17:21
