LAMMPS (2 Aug 2023)
OMP_NUM_THREADS environment is not set. Defaulting to 1 thread. (src/comm.cpp:98)
  using 1 OpenMP thread(s) per MPI task
Loaded 1 plugins from /work/home/baoergen22b/apprepo/deepmd/v2.2.9-dtk23.10/app/lib/deepmd_lmp
package gpu 4
# system
units        metal
dimension    3
atom_style   atomic
boundary     p p f

# 设置原子映射
atom_modify map array

# initial stucture
read_data POSCAR.lmp
Reading data file ...
  orthogonal box = (0 0 0) to (11.328 12.015 32)
  1 by 1 by 4 MPI processor grid
  reading atoms ...
  339 atoms
  read_data CPU = 0.035 seconds
mass      1 55.845
mass      2 15.999
mass      3 1.008
mass      4  35.450

# potential
pair_style deepmd graph-compress.pb
Summary of lammps deepmd module ...
  >>> Info of deepmd-kit:
  installed to:       /work/home/wys974137909/shangcheng/deepmd-kit/20240715/deepmd-kit_v2.2.9/install
  source:             v2.2.9
  source branch:      HEAD
  source commit:      be43748
  source commit at:   2024-02-04 13:44:12 +0800
  support model ver.: 1.1 
  build variant:      rocm
  build with tf inc:  /work/home/wys974137909/shangcheng/miniconda3/envs/deepmd-kit-v2.2.9/lib/python3.8/site-packages/tensorflow/include;/work/home/wys974137909/shangcheng/miniconda3/envs/deepmd-kit-v2.2.9/lib/python3.8/site-packages/tensorflow/include
  build with tf lib:  /work/home/wys974137909/shangcheng/miniconda3/envs/deepmd-kit-v2.2.9/lib/python3.8/site-packages/tensorflow/lib/libtensorflow_cc.so
  set tf intra_op_parallelism_threads: 0
  set tf inter_op_parallelism_threads: 0
  >>> Info of lammps module:
  use deepmd-kit at:  /work/home/wys974137909/shangcheng/deepmd-kit/20240715/deepmd-kit_v2.2.9/install
  source:             v2.2.9
  source branch:      HEAD
  source commit:      be43748
  source commit at:   2024-02-04 13:44:12 +0800
  build float prec:   double
  build with tf inc:  /work/home/wys974137909/shangcheng/miniconda3/envs/deepmd-kit-v2.2.9/lib/python3.8/site-packages/tensorflow/include;/work/home/wys974137909/shangcheng/miniconda3/envs/deepmd-kit-v2.2.9/lib/python3.8/site-packages/tensorflow/include
  build with tf lib:  /work/home/wys974137909/shangcheng/miniconda3/envs/deepmd-kit-v2.2.9/lib/python3.8/site-packages/tensorflow/lib/libtensorflow_cc.so
pair_coeff * *

# 固定原子受力、速度为 0
group fixed id 1:168
168 atoms in group fixed
group mobile subtract all fixed
171 atoms in group mobile
fix freeze_fixed fixed setforce 0.0 0.0 0.0
velocity fixed set 0 0 0

# 在z=27处添加硬性反射墙
fix wall1 mobile wall/reflect zhi 26

# 计算mobile组的温度
compute mTemp mobile temp
thermo 50
thermo_style custom step temp c_mTemp pe ke etotal press
velocity mobile  create 298.15 12345 mom yes rot yes

#fix ensemble mobile  nvt temp 298.15 298.15 1
#timestep 0.0005
#run 15000
#unfix ensemble        # 结束预平衡的NVT

fix ensemble mobile  nvt temp 298.15 298.15 1
fix meta  all colvars pmf.in tstat ensemble
timestep 0.0005
dump trace all custom 10 md.lammpstrj id type x y z
run 200000

CITE-CITE-CITE-CITE-CITE-CITE-CITE-CITE-CITE-CITE-CITE-CITE-CITE

Your simulation uses code contributions which should be cited:

- GPU package (short-range, long-range and three-body potentials): doi:10.1016/j.cpc.2010.12.021, doi:10.1016/j.cpc.2011.10.012, doi:10.1016/j.cpc.2013.08.002, doi:10.1016/j.commatsci.2014.10.068, doi:10.1016/j.cpc.2016.10.020, doi:10.3233/APC200086

@Article{Brown11,
 author = {W. M. Brown and P. Wang and S. J. Plimpton and A. N. Tharrington},
 title = {Implementing Molecular Dynamics on Hybrid High Performance Computers---Short Range Forces},
 journal = {Comput.\ Phys.\ Commun.},
 year =    2011,
 volume =  182,
 pages =   {898--911},
 doi =     {10.1016/j.cpc.2010.12.021}
}

@Article{Brown12,
 author = {W. M. Brown and A. Kohlmeyer and S. J. Plimpton and A. N. Tharrington},
 title = {Implementing Molecular Dynamics on Hybrid High Performance Computers - Particle-Particle Particle-Mesh},
 journal = {Comput.\ Phys.\ Commun.},
 year =    2012,
 volume =  183,
 doi =     {10.1016/j.cpc.2011.10.012},
 pages =   {449--459}
}

@Article{Brown13,
 author = {W. M. Brown and Y. Masako},
 title = {Implementing Molecular Dynamics on Hybrid High Performance Computers---Three-Body Potentials},
 journal = {Comput.\ Phys.\ Commun.},
 year =    2013,
 volume =  184,
 pages =   {2785--2793},
 doi =     {10.1016/j.cpc.2013.08.002},
}

@Article{Trung15,
 author = {T. D. Nguyen and S. J. Plimpton},
 title = {Accelerating Dissipative Particle Dynamics Simulations for Soft Matter Systems},
 journal = {Comput.\ Mater.\ Sci.},
 year =    2015,
 doi =     {10.1016/j.commatsci.2014.10.068},
 volume =  100,
 pages =   {173--180}
}

@Article{Trung17,
 author = {T. D. Nguyen},
 title = {{GPU}-Accelerated {T}ersoff Potentials for Massively Parallel
    Molecular Dynamics Simulations},
 journal = {Comput.\ Phys.\ Commun.},
 year =    2017,
 doi =     {10.1016/j.cpc.2016.10.020},
 volume =  212,
 pages =   {113--122}
}

@inproceedings{Nikolskiy19,
 author = {V. Nikolskiy and V. Stegailov},
 title = {{GPU} Acceleration of Four-Site Water Models in {LAMMPS}},
 booktitle = {Proceedings of the International Conference on Parallel
    Computing (ParCo 2019), Prague, Czech Republic},
 doi =     {10.3233/APC200086},
 year =    2019
}

- USER-DEEPMD package:

@article{Wang_ComputPhysCommun_2018_v228_p178,
  author = {Wang, Han and Zhang, Linfeng and Han, Jiequn and E, Weinan},
  doi = {10.1016/j.cpc.2018.03.016},
  url = {https://doi.org/10.1016/j.cpc.2018.03.016},
  year = 2018,
  month = {jul},
  publisher = {Elsevier {BV}},
  volume = 228,
  journal = {Comput. Phys. Commun.},
  title = {{DeePMD-kit: A deep learning package for many-body potential energy representation and molecular dynamics}},
  pages = {178--184}
}
@misc{Zeng_JChemPhys_2023_v159_p054801,
  title  = {{DeePMD-kit v2: A software package for deep potential models}},
  author =   {Jinzhe Zeng and Duo Zhang and Denghui Lu and Pinghui Mo and Zeyu Li
         and Yixiao Chen and Mari{\'a}n Rynik and Li'ang Huang and Ziyao Li and 
         Shaochen Shi and Yingze Wang and Haotian Ye and Ping Tuo and Jiabin
         Yang and Ye Ding and Yifan Li and Davide Tisi and Qiyu Zeng and Han 
         Bao and Yu Xia and Jiameng Huang and Koki Muraoka and Yibo Wang and 
         Junhan Chang and Fengbo Yuan and Sigbj{\o}rn L{\o}land Bore and Chun
         Cai and Yinnian Lin and Bo Wang and Jiayan Xu and Jia-Xin Zhu and 
         Chenxing Luo and Yuzhi Zhang and Rhys E A Goodall and Wenshuo Liang
         and Anurag Kumar Singh and Sikai Yao and Jingchao Zhang and Renata
         Wentzcovitch and Jiequn Han and Jie Liu and Weile Jia and Darrin M
         York and Weinan E and Roberto Car and Linfeng Zhang and Han Wang},
  journal =  {J. Chem. Phys.},
  volume =   159,
  issue =    5,  
  year =    2023,
  pages  =   054801,
  doi =      {10.1063/5.0155600},
}

CITE-CITE-CITE-CITE-CITE-CITE-CITE-CITE-CITE-CITE-CITE-CITE-CITE

Generated 0 of 6 mixed pair_coeff terms from geometric mixing rule
Neighbor list info ...
  update: every = 1 steps, delay = 0 steps, check = yes
  max neighbors/atom: 2000, page size: 100000
  master list distance cutoff = 8
  ghost atom cutoff = 8
  binsize = 4, bins = 3 4 8
  1 neighbor lists, perpetual/occasional/extra = 1 0 0
  (1) pair deepmd, perpetual
      attributes: full, newton on
      pair build: full/bin/atomonly
      stencil: full/bin/3d
      bin: standard
colvars: Creating proxy instance
colvars: ----------------------------------------------------------------------
colvars: Initializing the collective variables module, version 2023-05-01.
colvars: Please cite Fiorin et al, Mol Phys 2013:
colvars:   https://doi.org/10.1080/00268976.2013.813594
colvars: as well as all other papers listed below for individual features used.
colvars: This version was built with the C++11 standard or higher.
colvars: Using LAMMPS interface, version "2023-04-12".
colvars: ----------------------------------------------------------------------
colvars: Reading new configuration from file "pmf.in":
colvars: # units = "" [default]
colvars: # smp = on [default]
colvars: # colvarsTrajFrequency = 100 [default]
colvars: # colvarsRestartFrequency = 0 [default]
colvars: # scriptedColvarForces = off [default]
colvars: # scriptingAfterBiases = off [default]
colvars: ----------------------------------------------------------------------
colvars:   Initializing a new collective variable.
colvars:   # name = "d"
colvars:   Initializing a new "distance" component.
colvars:     # name = "" [default]
colvars:     # componentCoeff = 1 [default]
colvars:     # componentExp = 1 [default]
colvars:     # period = 0 [default]
colvars:     # wrapAround = 0 [default]
colvars:     # forceNoPBC = off [default]
colvars:     # scalable = on [default]
colvars:       Initializing atom group "group1".
colvars:       # name = "" [default]
colvars:       # centerToOrigin = off [default]
colvars:       # centerToReference = off [default]
colvars:       # rotateToReference = off [default]
colvars:       # atomsOfGroup = "" [default]
colvars:       # indexGroup = "" [default]
colvars:       # psfSegID =  [default]
colvars:       # atomsFile = "" [default]
colvars:       # dummyAtom = ( 0 , 0 , 0 ) [default]
colvars:       # enableFitGradients = on [default]
colvars:       # printAtomIDs = off [default]
colvars:       Atom group "group1" defined with 1 atoms requested.
colvars:       Initializing atom group "group2".
colvars:       # name = "" [default]
colvars:       # centerToOrigin = off [default]
colvars:       # centerToReference = off [default]
colvars:       # rotateToReference = off [default]
colvars:       # atomsOfGroup = "" [default]
colvars:       # indexGroup = "" [default]
colvars:       # psfSegID =  [default]
colvars:       # atomsFile = "" [default]
colvars:       # dummyAtom = ( 0 , 0 , 0 ) [default]
colvars:       # enableFitGradients = on [default]
colvars:       # printAtomIDs = off [default]
colvars:       Atom group "group2" defined with 1 atoms requested.
colvars:     # oneSiteSystemForce = off [default]
colvars:     # oneSiteTotalForce = off [default]
colvars:   All components initialized.
colvars:   # timeStepFactor = 1 [default]
colvars:   # width = 0.02
colvars:   # lowerBoundary = 0.3
colvars:   # upperBoundary = 4
colvars:   # hardLowerBoundary = on
colvars:   # hardUpperBoundary = on
colvars:   # expandBoundaries = off [default]
colvars:   # extendedLagrangian = off [default]
colvars:   # outputValue = on [default]
colvars:   # outputVelocity = off [default]
colvars:   # outputTotalForce = on
colvars:   # outputAppliedForce = on
colvars:   # subtractAppliedForce = off [default]
colvars:   # runAve = off [default]
colvars:   # corrFunc = off [default]
colvars: ----------------------------------------------------------------------
colvars: Collective variables initialized, 1 in total.
colvars: ----------------------------------------------------------------------
colvars:   Initializing a new "metadynamics" instance.
colvars:   # name = "metadynamics1" [default]
colvars:   # colvars = { d }
colvars:   # stepZeroData = off [default]
colvars:   # outputEnergy = off [default]
colvars:   # outputFreq = 0 [default]
colvars:   # timeStepFactor = 1 [default]
colvars:   # writeTISamples = on
colvars:   # writeTIPMF = on
colvars:   # hillWeight = 0.08
colvars:   # newHillFrequency = 200
colvars:   # gaussianSigmas =  [default]
colvars:   # hillWidth = 1
colvars:   Half-widths of the Gaussian hills (sigma's):
colvars:   d: 0.01
colvars:   # multipleReplicas = off [default]
colvars:   # useGrids = on [default]
colvars:   # gridsUpdateFrequency = 200 [default]
colvars:   # rebinGrids = off [default]
colvars:   # writeFreeEnergyFile = on [default]
colvars:   # keepHills = off [default]
colvars:   # keepFreeEnergyFiles = off [default]
colvars:   # writeHillsTrajectory = off [default]
colvars:   # wellTempered = off [default]
colvars:   # biasTemperature = 800
colvars:   # ebMeta = off [default]
colvars: ----------------------------------------------------------------------
colvars: Collective variables biases initialized, 1 in total.
colvars: ----------------------------------------------------------------------
colvars: Collective variables module (re)initialized.
colvars: ----------------------------------------------------------------------
colvars: Re-initialized atom group for variable "d":0/0. 1 atoms: total mass = 1.008, total charge = 4.74303e-322.
colvars: Re-initialized atom group for variable "d":0/1. 1 atoms: total mass = 1.008, total charge = 0.
colvars: The restart output state file will be "rest.colvars.state".
colvars: The final output state file will be "out.colvars.state".
Per MPI rank memory allocation (min/avg/max) = 3.124 | 3.153 | 3.169 Mbytes
   Step          Temp         c_mTemp         PotEng         KinEng         TotEng         Press     
         0   149.9571       298.15        -2246.4242      6.5516151     -2239.8725     -14917.607    
        50   170.26374      338.52438     -2243.7831      7.4388107     -2236.3443     -15973.328    
       100   180.27753      358.43415     -2244.2152      7.8763124     -2236.3389     -18881.711    
       150   191.86534      381.47344     -2244.7719      8.3825832     -2236.3893     -14363.81     
       200   196.13974      389.97196     -2244.8965      8.5693314     -2236.3271     -16129.647    
       250   166.13421      330.31391     -2243.3374      7.258392      -2236.079      -17146.324    
       300   210.90067      419.32015     -2245.341       9.2142352     -2236.1267     -14038.199    
       350   211.11049      419.73732     -2245.3803      9.2234022     -2236.1569     -14821.223    
       400   196.78782      391.26049     -2244.735       8.5976459     -2236.1373     -15561.901    
       450   205.20464      407.99511     -2244.7141      8.9653762     -2235.7487     -15247.209    
       500   198.82539      395.31166     -2244.471       8.6866673     -2235.7843     -16845.373    
       550   206.80746      411.1819      -2244.8629      9.0354035     -2235.8275     -16592.58     
       600   228.66211      454.63408     -2245.8571      9.9902315     -2235.8669     -14943.488    
       650   202.94724      403.50686     -2244.7802      8.8667503     -2235.9134     -11857.25     
       700   215.73535      428.93264     -2245.2793      9.4254622     -2235.8538     -13560.149    
       750   208.69773      414.94019     -2245.0017      9.1179889     -2235.8837     -14220.508    
       800   194.17156      386.05875     -2244.457       8.4833416     -2235.9737     -15933.917    
       850   208.55537      414.65714     -2245.0897      9.1117691     -2235.9779     -16070.57     
       900   193.99663      385.71094     -2244.5606      8.4756989     -2236.0849     -12797.271    
       950   214.87208      427.21625     -2245.2371      9.3877459     -2235.8494     -15572.344    
      1000   186.84432      371.49046     -2244.0902      8.1632149     -2235.927      -12922.301    
      1050   201.97338      401.57061     -2244.4202      8.8242028     -2235.596      -17392.645    
      1100   201.79531      401.21656     -2243.3955      8.8164228     -2234.5791     -10829.408    
      1150   211.5091       420.52985     -2243.8856      9.2408174     -2234.6448     -14036.998    
      1200   243.22106      483.58069     -2244.887       10.626311     -2234.2607     -16275.029    
      1250   209.67032      416.87394     -2243.2173      9.1604816     -2234.0568     -13984.578    
      1300   205.89666      409.371       -2243.298       8.9956104     -2234.3024     -16404.152    
      1350   216.13133      429.71994     -2243.6798      9.4427625     -2234.2371     -13761.302    
      1400   231.48073      460.23815     -2244.4942      10.113376     -2234.3808     -15273.793    
      1450   220.17945      437.76855     -2243.7358      9.6196245     -2234.1162     -17488.681    
      1500   224.60926      446.57606     -2244.1052      9.8131626     -2234.292      -14281.631    
      1550   195.26971      388.24213     -2242.8143      8.5313197     -2234.2829     -15508.677    
      1600   229.74171      456.78058     -2244.1703      10.037399     -2234.1329     -18677.422    
      1650   194.91146      387.52983     -2242.4474      8.5156676     -2233.9318     -18291.117    
      1700   219.2406       435.90189     -2242.8887      9.5786061     -2233.3101     -13642.799    
      1750   217.73335      432.90514     -2242.4221      9.5127548     -2232.9094     -16938.367    
      1800   209.5617       416.65797     -2242.0155      9.1557359     -2232.8598     -15536.291    
      1850   201.93171      401.48774     -2241.668       8.8223819     -2232.8457     -14283.619    
      1900   211.91735      421.34156     -2242.033       9.2586542     -2232.7743     -15837.097    
      1950   215.57986      428.62348     -2241.9002      9.4186687     -2232.4815     -15227.469    
      2000   221.70928      440.81021     -2242.1648      9.6864626     -2232.4784     -12051.645    
      2050   206.75605      411.07967     -2241.5354      9.033157      -2232.5023     -13099.477    
      2100   227.06934      451.46727     -2242.4815      9.9206432     -2232.5609     -15535.1      
      2150   211.4031       420.3191      -2241.4951      9.2361864     -2232.2589     -11441.149    
      2200   222.22067      441.82697     -2241.9583      9.7088051     -2232.2495     -15856.183    
      2250   216.27214      429.99991     -2241.7377      9.4489145     -2232.2888     -13993.044    
      2300   216.27485      430.00529     -2241.8061      9.4490328     -2232.3571     -13184.768    
      2350   208.97412      415.48973     -2241.5493      9.1300646     -2232.4192     -13858.246    
      2400   221.83714      441.06444     -2242.1853      9.6920491     -2232.4933     -15761.386    
      2450   198.78159      395.22456     -2241.2449      8.6847533     -2232.5601     -14797.42     
      2500   204.09169      405.78231     -2241.5524      8.9167515     -2232.6357     -15942.78     
      2550   199.19089      396.03835     -2241.3991      8.7026357     -2232.6964     -14615.427    
      2600   204.53603      406.66575     -2241.7123      8.9361645     -2232.7761     -12765.39     
      2650   209.33708      416.21138     -2242.001       9.1459224     -2232.8551     -13500.465    
      2700   196.74436      391.17408     -2241.5178      8.595747      -2232.9221     -15893.684    
      2750   202.00268      401.62885     -2241.8171      8.8254827     -2232.9916     -11143.862    
      2800   209.79902      417.12982     -2242.2314      9.1661045     -2233.0653     -15335.654    
      2850   208.7766       415.097       -2242.2623      9.1214348     -2233.1409     -10595.477    
      2900   217.04292      431.53239     -2242.6964      9.4825897     -2233.2138     -15914.148    
      2950   203.66685      404.93762     -2242.1895      8.8981902     -2233.2913     -15157.646    
      3000   206.1911       409.95642     -2242.3845      9.0084745     -2233.376      -13024.01     
      3050   200.99074      399.61688     -2242.2394      8.7812712     -2233.4581     -11700.129    
      3100   216.62721      430.70587     -2242.9945      9.4644276     -2233.5301     -17229.649    
      3150   217.47462      432.39071     -2243.1188      9.5014506     -2233.6174     -11496.744    
      3200   211.80807      421.12429     -2242.9551      9.2538797     -2233.7012     -16879.248    
      3250   222.91266      443.20282     -2243.5311      9.7390384     -2233.7921     -12543.917    
      3300   216.85068      431.15018     -2243.3468      9.4741909     -2233.8726     -14760.736    
      3350   205.60005      408.78128     -2242.9375      8.9826516     -2233.9548     -16855.61     
      3400   191.74303      381.23026     -2242.4044      8.3772393     -2234.0271     -14436.772    
      3450   199.7745       397.19871     -2242.8522      8.7281338     -2234.124      -10111.172    
      3500   199.21994      396.09611     -2242.9038      8.7039048     -2234.1998     -16305.365    
      3550   195.53908      388.77769     -2242.8214      8.5430884     -2234.2784     -13599.214    
      3600   184.65436      367.13632     -2242.422       8.0675359     -2234.3544     -12667.453    
      3650   188.49682      374.77602     -2242.6646      8.2354125     -2234.4292     -18557.735    
      3700   191.48327      380.71379     -2242.8717      8.3658904     -2234.5059     -14208.136    
      3750   180.66756      359.20962     -2242.4637      7.893353      -2234.5703     -12250.138    
      3800   179.23887      356.36905     -2242.4708      7.8309337     -2234.6398     -13374.067    
      3850   184.59595      367.02019     -2242.7672      8.064984      -2234.7022     -17105.452    
      3900   200.77993      399.19774     -2243.5349      8.7720607     -2234.7628     -17283.777    
      3950   178.70878      355.3151      -2242.6393      7.8077738     -2234.8315     -12058.783    
      4000   193.77573      385.27174     -2243.3652      8.4660477     -2234.8991     -14432.528    
      4050   193.60448      384.93127     -2243.4254      8.4585661     -2234.9668     -10509.142    
      4100   178.7938       355.48415     -2242.8516      7.8114886     -2235.0401     -14532.045    
      4150   185.96341      369.73901     -2243.2327      8.1247281     -2235.1079     -14425.958    
      4200   204.72434      407.04015     -2244.1321      8.9443917     -2235.1877     -15892.359    
      4250   193.71491      385.15083     -2243.7118      8.4633908     -2235.2485     -12662.009    
      4300   191.25139      380.25277     -2243.679       8.3557598     -2235.3233     -15237.343    
      4350   206.89586      411.35764     -2244.4324      9.0392653     -2235.3931     -16118.231    
      4400   195.13696      387.97818     -2243.9926      8.5255198     -2235.4671     -14518.269    
      4450   198.61197      394.88733     -2244.2144      8.6773429     -2235.5371     -16032.525    
      4500   193.53139      384.78595     -2244.0621      8.4553728     -2235.6068     -15478.951    
      4550   202.28004      402.18031     -2244.5201      8.8376004     -2235.6825     -15842.557    
      4600   187.67228      373.13664     -2243.9524      8.1993884     -2235.7531     -13166.466    
      4650   192.20293      382.14465     -2244.2318      8.3973323     -2235.8345     -16372.088    
      4700   190.2358       378.23353     -2244.2144      8.3113886     -2235.903      -16848.099    
      4750   198.16366      393.99598     -2244.6327      8.6577561     -2235.975      -17801.033    
      4800   193.36948      384.46403     -2244.5003      8.4482989     -2236.052      -17680.352    
      4850   215.46864      428.40235     -2245.5483      9.4138095     -2236.1345     -11914.936    
      4900   198.88003      395.42029     -2244.9022      8.6890542     -2236.2131     -16554.903    
      4950   188.68814      375.15641     -2244.5253      8.2437713     -2236.2815     -16258.894    
      5000   196.82035      391.32517     -2244.9554      8.5990672     -2236.3564     -15371.806    
      5050   197.13165      391.94411     -2245.0399      8.612668      -2236.4273     -18572.527    
      5100   193.23145      384.18959     -2244.9423      8.4422684     -2236.5        -19510.988    
      5150   208.16716      413.88529     -2245.6746      9.0948084     -2236.5798     -14333.895    
      5200   200.56171      398.76387     -2245.4158      8.7625268     -2236.6533     -17945.836    
      5250   194.51715      386.74587     -2245.2237      8.4984406     -2236.7253     -17245.314    
      5300   202.03399      401.6911      -2245.6285      8.8268505     -2236.8016     -15354.89     
      5350   198.85148      395.36354     -2245.5667      8.6878072     -2236.8789     -14334.607    
      5400   199.50075      396.65443     -2245.6673      8.7161735     -2236.9511     -19104.968    
      5450   203.90066      405.40249     -2245.9453      8.9084055     -2237.0369     -18152.97     
      5500   187.07893      371.95694     -2245.2851      8.1734653     -2237.1116     -15356.485    
      5550   206.22241      410.01867     -2246.2076      9.0098424     -2237.1978     -17037.439    
      5600   197.82048      393.31366     -2245.916       8.6427627     -2237.2732     -15801.011    
      5650   206.4373       410.44593     -2246.3768      9.0192311     -2237.3576     -18615.621    
      5700   185.80117      369.41643     -2245.5381      8.1176397     -2237.4205     -21589.072    
      5750   188.40951      374.60244     -2245.7307      8.2315981     -2237.4991     -19085.726    
      5800   196.78584      391.25655     -2246.1754      8.5975594     -2237.5779     -18522.652    
      5850   196.54976      390.78717     -2246.2407      8.587245      -2237.6535     -19888.929    
      5900   198.79475      395.25074     -2246.4305      8.6853286     -2237.7451     -17727.306    
      5950   190.5171       378.79282     -2246.1383      8.3236786     -2237.8147     -12971.527    
      6000   193.04493      383.81874     -2246.3231      8.4341193     -2237.889      -18055.57     
      6050   190.48651      378.732       -2246.2878      8.322342      -2237.9654     -22258.555    
      6100   200.23325      398.11081     -2246.7963      8.7481764     -2238.0481     -16230.54     
      6150   205.73485      409.04929     -2247.1162      8.9885411     -2238.1276     -18402.894    
      6200   202.90288      403.41866     -2247.0747      8.8648123     -2238.2099     -18418.541    
      6250   199.89578      397.43984     -2247.0163      8.7334324     -2238.2829     -20649.444    
      6300   202.37328      402.36569     -2247.2059      8.8416742     -2238.3642     -21181.829    
      6350   203.95145      405.50348     -2247.3601      8.9106245     -2238.4494     -21505.329    
      6400   198.02056      393.71147     -2247.1684      8.6515043     -2238.5169     -19290.835    
      6450   199.56213      396.77646     -2247.3164      8.7188552     -2238.5975     -21434.985    
      6500   188.80079      375.3804      -2246.929       8.2486933     -2238.6804     -21481.567    
      6550   184.14056      366.11475     -2246.8011      8.0450878     -2238.756      -20948.195    
      6600   204.53528      406.66427     -2247.7715      8.936132      -2238.8354     -18818.4      
      6650   174.37551      346.69955     -2246.5286      7.6184539     -2238.9101     -19047.985    
      6700   192.26817      382.27436     -2247.3892      8.4001827     -2238.989      -23746.891    
      6750   197.13867      391.95806     -2247.6875      8.6129744     -2239.0745     -18453.415    
      6800   220.62471      438.65384     -2248.7986      9.639078      -2239.1595     -22819.369    
      6850   194.33836      386.39038     -2247.7252      8.490629      -2239.2346     -22779.433    
      6900   207.43769      412.43493     -2248.3905      9.0629379     -2239.3276     -18533.684    
      6950   203.32718      404.26227     -2248.2873      8.88335       -2239.404      -21481.792    
      7000   208.07095      413.694       -2248.5845      9.090605      -2239.4939     -18596.398    
      7050   200.49168      398.62464     -2248.3286      8.7594673     -2239.5692     -20110.022    
      7100   188.23768      374.2608      -2247.8684      8.2240908     -2239.6443     -20645.178    
      7150   208.87032      415.28334     -2248.8549      9.1255294     -2239.7294     -21307.439    
      7200   207.43744      412.43445     -2248.886       9.0629272     -2239.8231     -20554.853    
      7250   192.53274      382.80039     -2248.3072      8.4117417     -2239.8954     -22056.633    
      7300   201.47787      400.58541     -2248.7851      8.8025537     -2239.9826     -24200.322    
      7350   203.38494      404.37712     -2248.9545      8.8858736     -2240.0686     -19467.818    
      7400   203.85091      405.30358     -2249.0569      8.9062319     -2240.1507     -24790.983    
      7450   180.80107      359.47506     -2248.1239      7.8991858     -2240.2247     -20791.329    
      7500   181.15093      360.17067     -2248.2284      7.9144712     -2240.3139     -23727.95     
      7550   178.33899      354.57988     -2248.1861      7.7916178     -2240.3945     -26521.047    
      7600   202.2848       402.18977     -2249.3152      8.8378084     -2240.4774     -24054.547    
      7650   186.42897      370.66466     -2248.7067      8.1450686     -2240.5617     -16783.144    
      7700   207.49808      412.555       -2249.7092      9.0655762     -2240.6436     -23528.655    
      7750   199.14763      395.95235     -2249.4232      8.7007459     -2240.7224     -22005.842    
      7800   179.21004      356.31172     -2248.6349      7.8296738     -2240.8052     -25377.489    
      7850   170.25102      338.49909     -2248.3212      7.4382551     -2240.883      -19225.958    
      7900   182.28759      362.43062     -2248.9291      7.9641318     -2240.9649     -25365.161    
      7950   182.53537      362.92326     -2249.0135      7.9749573     -2241.0385     -22161.94     
      8000   192.30108      382.33979     -2249.5245      8.4016205     -2241.1228     -25404.444    
      8050   196.0487       389.79095     -2249.7662      8.5653539     -2241.2009     -22486.181    
      8100   208.48099      414.50925     -2250.3944      9.1085195     -2241.2859     -20968.862    
      8150   188.25026      374.28582     -2249.5883      8.2246406     -2241.3636     -20803.264    
      8200   200.31383      398.27102     -2250.202       8.7516968     -2241.4503     -23690.436    
      8250   223.0219       443.42002     -2251.2859      9.7438111     -2241.5421     -23670.068    
      8300   203.395        404.39712     -2250.5213      8.8863131     -2241.635      -22041.041    
      8350   195.34252      388.38689     -2250.2458      8.5345007     -2241.7113     -23060.161    
      8400   209.43446      416.40499     -2250.9526      9.1501769     -2241.8024     -21343.924    
      8450   196.82309      391.33061     -2250.4941      8.5991867     -2241.8949     -19465.57     
      8500   201.38142      400.39366     -2250.7827      8.7983401     -2241.9843     -15640.368    
      8550   203.72549      405.05422     -2250.9679      8.9007524     -2242.0672     -17213.021    
      8600   205.0789       407.7451      -2251.1191      8.9598825     -2242.1592     -17530.68     
      8650   226.06007      449.46061     -2252.1302      9.8765484     -2242.2537     -22063.172    
      8700   193.24095      384.20848     -2250.7921      8.4426835     -2242.3494     -20535.81     
      8750   208.01348      413.57974     -2251.5283      9.088094      -2242.4402     -22059.751    
      8800   211.43388      420.3803      -2251.7728      9.2375311     -2242.5352     -21103.69     
      8850   184.21141      366.25562     -2250.6648      8.0481832     -2242.6166     -17500.883    
      8900   192.44372      382.6234      -2251.1203      8.4078525     -2242.7124     -21778.415    
      8950   206.08208      409.73966     -2251.8066      9.0037114     -2242.8029     -23403.48     
      9000   192.33694      382.41108     -2251.2973      8.403187      -2242.8941     -22835.288    
      9050   201.17585      399.98492     -2251.7659      8.7893584     -2242.9765     -20993.982    
      9100   202.76422      403.14299     -2251.932       8.8587546     -2243.0732     -19278.509    
      9150   204.40872      406.41264     -2252.1013      8.9306026     -2243.1707     -20061.87     
      9200   200.62725      398.89419     -2252.0158      8.7653905     -2243.2504     -19004.032    
      9250   203.84439      405.29062     -2252.2512      8.905947      -2243.3453     -19656.192    
      9300   199.1873       396.03123     -2252.1322      8.7024791     -2243.4297     -22955.923    
      9350   202.24909      402.11878     -2252.3618      8.8362484     -2243.5255     -22517.391    
      9400   184.49426      366.818       -2251.6555      8.0605412     -2243.5949     -22668.609    
      9450   207.9392       413.43206     -2252.7867      9.084849      -2243.7018     -22318.723    
      9500   179.72552      357.33662     -2251.6311      7.8521951     -2243.7789     -18648.824    
      9550   203.69025      404.98415     -2252.7764      8.8992127     -2243.8772     -20245.09     
      9600   183.70332      365.24542     -2251.9822      8.025985      -2243.9563     -20497.295    
      9650   197.67712      393.02863     -2252.6809      8.6364995     -2244.0444     -22142.929    
      9700   176.21341      350.35372     -2251.8332      7.6987513     -2244.1344     -23147.309    
      9750   198.61713      394.8976      -2252.8887      8.6775685     -2244.2111     -23987.848    
      9800   196.40012      390.48965     -2252.8721      8.5807072     -2244.2914     -23773.631    
      9850   184.23113      366.29483     -2252.4305      8.0490448     -2244.3815     -24673.689    
      9900   204.37147      406.33857     -2253.3969      8.928975      -2244.4679     -21090.504    
      9950   203.70915      405.02173     -2253.4568      8.9000385     -2244.5568     -24224.328    
     10000   203.02595      403.66337     -2253.513       8.8701895     -2244.6428     -22024.836    
     10050   197.81323      393.29925     -2253.3725      8.642446      -2244.73       -22792.949    
     10100   195.29936      388.30109     -2253.3516      8.5326154     -2244.819      -21906.027    
     10150   185.26892      368.35821     -2252.9984      8.094386      -2244.904      -23010.808    
     10200   181.57417      361.01218     -2252.9156      7.9329627     -2244.9826     -23583.721    
     10250   199.06283      395.78374     -2253.7689      8.6970409     -2245.0719     -24059.326    
     10300   181.49954      360.8638      -2253.0725      7.9297022     -2245.1428     -27793.747    
     10350   185.39279      368.60448     -2253.3208      8.0997976     -2245.221      -22354.153    
     10400   194.47795      386.66793     -2253.7979      8.4967279     -2245.3011     -24679.882    
     10450   197.59695      392.86923     -2254.0106      8.6329966     -2245.3776     -20773.089    
     10500   206.45539      410.48189     -2254.4937      9.0200212     -2245.4737     -25167.915    
     10550   177.82183      353.55164     -2253.3208      7.7690231     -2245.5517     -24167.1      
     10600   197.18304      392.04628     -2254.2586      8.614913      -2245.6437     -21811.772    
     10650   188.12533      374.03742     -2253.9291      8.2191823     -2245.7099     -25558.916    
     10700   178.69755      355.29278     -2253.5971      7.8072834     -2245.7898     -17958.049    
     10750   181.84879      361.55818     -2253.8121      7.9449606     -2245.8671     -23144.348    
     10800   165.34887      328.75246     -2253.1737      7.2240804     -2245.9497     -20847.567    
     10850   182.95129      363.75021     -2254.005       7.9931288     -2246.0119     -23447.036    
     10900   183.32775      364.49871     -2254.1016      8.0095764     -2246.092      -20015.288    
     10950   184.52804      366.88516     -2254.2295      8.062017      -2246.1675     -20162.992    
     11000   172.98147      343.92787     -2253.8068      7.5575482     -2246.2493     -24354.365    
     11050   175.91163      349.75371     -2254.001       7.6855665     -2246.3154     -22292.936    
     11100   182.24099      362.33797     -2254.3598      7.9620958     -2246.3977     -21795.776    
     11150   194.23469      386.18427     -2254.9606      8.4860998     -2246.4745     -21976.925    
     11200   176.71553      351.35206     -2254.2703      7.7206891     -2246.5496     -24398.358    
     11250   185.09433      368.01107     -2254.6977      8.086758      -2246.6109     -20516.874    
     11300   175.24153      348.42139     -2254.3384      7.6562899     -2246.6821     -20207.541    
     11350   188.07376      373.93489     -2254.9711      8.2169292     -2246.7542     -21599.948    
     11400   182.70576      363.26203     -2254.8108      7.9824015     -2246.8284     -20590.231    
     11450   175.36253      348.66197     -2254.5585      7.6615765     -2246.8969     -21184.999    
     11500   178.3102       354.52264     -2254.7598      7.7903601     -2246.9695     -20931.647    
     11550   178.17913      354.26204     -2254.8308      7.7846337     -2247.0462     -24819.986    
     11600   169.99073      337.98157     -2254.5369      7.426883      -2247.1101     -21824.849    
     11650   170.00767      338.01526     -2254.6005      7.4276232     -2247.1729     -20694.135    
     11700   177.62568      353.16164     -2255.0005      7.7604533     -2247.24       -22890.21     
     11750   164.37428      326.81474     -2254.4951      7.1815004     -2247.3136     -19235.881    
     11800   168.32403      334.66778     -2254.727       7.3540651     -2247.3729     -19856.917    
     11850   169.03957      336.09044     -2254.8258      7.3853268     -2247.4405     -24571.804    
     11900   176.11628      350.1606      -2255.1896      7.6945077     -2247.4951     -25424.254    
     11950   176.28645      350.49895     -2255.2685      7.7019426     -2247.5666     -21869.346    
     12000   165.02207      328.10271     -2254.837       7.2098026     -2247.6272     -24391.573    
     12050   169.15766      336.32523     -2255.0815      7.3904863     -2247.691      -23915.25     
     12100   161.70279      321.50319     -2254.8072      7.0647834     -2247.7425     -22081.418    
     12150   159.19551      316.51813     -2254.7605      6.9552405     -2247.8052     -19365.863    
     12200   158.95907      316.04803     -2254.8052      6.9449105     -2247.8603     -21757.553    
     12250   155.22461      308.62304     -2254.702       6.781752      -2247.9202     -23379.997    
     12300   156.71239      311.5811      -2254.8239      6.8467531     -2247.9771     -25656.792    
     12350   163.30965      324.69801     -2255.1626      7.1349871     -2248.0276     -23469.446    
     12400   161.64361      321.38552     -2255.1421      7.0621977     -2248.0799     -24900.853    
     12450   189.465        376.70099     -2256.423       8.2777123     -2248.1453     -19006.014    
     12500   174.30869      346.56669     -2255.8112      7.6155343     -2248.1956     -22590.288    
     12550   163.55376      325.18336     -2255.395       7.1456523     -2248.2494     -22734.544    
     12600   153.503        305.20008     -2255.0179      6.706535      -2248.3114     -20660.861    
     12650   173.6314       345.22008     -2255.9558      7.5859436     -2248.3698     -26618.347    
     12700   154.45674      307.09634     -2255.164       6.7482039     -2248.4158     -22993.849    
     12750   152.30575      302.81968     -2255.1256      6.6542276     -2248.4713     -24404.65     
     12800   165.48144      329.01603     -2255.7615      7.2298722     -2248.5316     -22519.606    
     12850   163.32242      324.72339     -2255.7157      7.1355448     -2248.5801     -23773.979    
     12900   151.93535      302.08323     -2255.2659      6.6380448     -2248.6278     -24078.866    
     12950   173.55032      345.05887     -2256.2581      7.5824011     -2248.6757     -19313.339    
     13000   162.82667      323.73772     -2255.8541      7.1138855     -2248.7402     -23212.248    
     13050   165.03722      328.13282     -2256.0031      7.2104643     -2248.7927     -23327.325    
     13100   150.58053      299.38952     -2255.4085      6.5788526     -2248.8297     -21929.013    
     13150   164.43978      326.94497     -2256.07        7.1843621     -2248.8857     -25075.735    
     13200   159.76831      317.657       -2255.9122      6.9802662     -2248.9319     -22176.078    
     13250   152.07351      302.35792     -2255.62        6.644081      -2248.9759     -20052.226    
     13300   150.4377       299.10554     -2255.6009      6.5726123     -2249.0283     -19891.586    
     13350   150.74299      299.71253     -2255.6622      6.5859505     -2249.0763     -24302.45     
     13400   164.27639      326.62011     -2256.3085      7.1772236     -2249.1313     -20384.046    
     13450   168.87959      335.77236     -2256.5553      7.3783372     -2249.177      -19640.717    
     13500   164.56553      327.195       -2256.4107      7.1898565     -2249.2208     -19444.976    
     13550   160.57118      319.25328     -2256.2768      7.0153434     -2249.2615     -20961.539    
     13600   158.14572      314.4309      -2256.2207      6.9093751     -2249.3114     -21777.233    
     13650   151.20495      300.63101     -2255.9606      6.6061333     -2249.3545     -22574.891    
     13700   157.25193      312.65384     -2256.2707      6.8703257     -2249.4004     -23306.41     
     13750   150.82075      299.86713     -2256.03        6.5893477     -2249.4406     -17566.611    
     13800   155.67984      309.52814     -2256.2812      6.801641      -2249.4796     -20004.646    
     13850   162.91848      323.92028     -2256.6509      7.117897      -2249.533      -18807.977    
     13900   144.46609      287.23258     -2255.8849      6.3117133     -2249.5732     -19200.18     
     13950   151.08687      300.39625     -2256.2232      6.6009746     -2249.6222     -16230.913    
     14000   151.74904      301.7128      -2256.2846      6.6299049     -2249.6547     -21247.853    
     14050   157.49571      313.13853     -2256.5814      6.8809764     -2249.7004     -21384.855    
     14100   148.00631      294.27138     -2256.2013      6.4663853     -2249.7349     -20224.984    
     14150   146.62641      291.52781     -2256.189       6.4060976     -2249.7829     -22427.505    
     14200   145.92496      290.13316     -2256.1974      6.3754511     -2249.822      -21308.764    
     14250   147.46739      293.19987     -2256.3091      6.4428399     -2249.8663     -20398.415    
     14300   152.92638      304.05363     -2256.59        6.6813427     -2249.9087     -23189.556    
     14350   145.67294      289.63208     -2256.3027      6.3644404     -2249.9383     -23475.82     
     14400   142.37992      283.08478     -2256.1912      6.2205685     -2249.9706     -23519.608    
     14450   139.8443       278.04338     -2256.1203      6.1097878     -2250.0105     -25002.903    
     14500   141.12339      280.5865      -2256.218       6.1656708     -2250.0523     -22951.694    
     14550   150.94866      300.12146     -2256.6773      6.5949363     -2250.0824     -23089.081    
     14600   132.94112      264.31823     -2255.9168      5.8081882     -2250.1086     -21397.381    
     14650   153.21834      304.63411     -2256.831       6.6940984     -2250.1369     -24261.895    
     14700   137.14318      272.67292     -2256.1577      5.9917759     -2250.1659     -22181.701    
     14750   149.07886      296.40385     -2256.7147      6.5132448     -2250.2014     -20050.996    
     14800   134.42874      267.27598     -2256.0968      5.8731823     -2250.2236     -16156.158    
     14850   149.17554      296.59608     -2256.7786      6.5174689     -2250.2611     -20043.14     
     14900   144.48526      287.2707      -2256.6023      6.3125509     -2250.2897     -22086.79     
     14950   141.4585       281.25279     -2256.4949      6.180312      -2250.3146     -22786.863    
     15000   149.8356       297.90843     -2256.8927      6.5463069     -2250.3464     -18872.64     
     15050   143.97712      286.26039     -2256.659       6.29035       -2250.3687     -21510.537    
     15100   147.60614      293.47574     -2256.8507      6.4489018     -2250.4018     -17228.59     
     15150   141.94019      282.21049     -2256.6275      6.2013566     -2250.4262     -21927.195    
     15200   133.81552      266.05674     -2256.2988      5.8463905     -2250.4525     -20345.479    
     15250   146.85597      291.98422     -2256.8945      6.4161268     -2250.4784     -22418.726    
     15300   132.62071      263.68118     -2256.2986      5.7941895     -2250.5045     -21129.152    
     15350   146.92101      292.11353     -2256.9455      6.4189683     -2250.5266     -19528.418    
     15400   156.89657      311.9473      -2257.4195      6.8548001     -2250.5647     -21108.224    
     15450   138.77575      275.91885     -2256.6376      6.0631028     -2250.5745     -20329.328    
     15500   138.60416      275.57769     -2256.65        6.0556061     -2250.5944     -22796.714    
     15550   135.18058      268.7708      -2256.5282      5.90603       -2250.6221     -23829.687    
     15600   133.13257      264.69888     -2256.4476      5.8165526     -2250.6311     -26429.424    
     15650   145.90404      290.09157     -2257.0275      6.3745373     -2250.6529     -20072.023    
     15700   123.31048      245.17025     -2256.0516      5.3874261     -2250.6642     -24726.662    
     15750   140.18448      278.71974     -2256.8142      6.1246502     -2250.6896     -22809.199    
     15800   120.87147      240.32091     -2255.9829      5.2808657     -2250.7021     -23944.597    
     15850   142.42332      283.17107     -2256.9495      6.2224648     -2250.727      -21095.453    
     15900   144.62338      287.5453      -2257.0597      6.318585      -2250.7411     -22514.109    
     15950   135.49868      269.40327     -2256.6729      5.9199279     -2250.7529     -17897.659    
     16000   134.0651       266.55297     -2256.6225      5.8572949     -2250.7652     -20328.726    
     16050   130.68041      259.82341     -2256.4902      5.709418      -2250.7807     -19377.024    
     16100   145.89172      290.06706     -2257.1614      6.3739987     -2250.7874     -21650.973    
     16150   147.20498      292.67813     -2257.2409      6.431375      -2250.8096     -21491.347    
     16200   129.88515      258.24224     -2256.4856      5.6746729     -2250.8109     -19425.106    
     16250   152.68231      303.56836     -2257.5063      6.6706794     -2250.8356     -20016.517    
     16300   145.81705      289.9186      -2257.2175      6.3707365     -2250.8468     -20377.394    
     16350   139.64407      277.64526     -2256.9568      6.1010393     -2250.8558     -20941.102    
     16400   136.90839      272.2061      -2256.8473      5.981518      -2250.8658     -19761.269    
     16450   137.29507      272.97491     -2256.8783      5.9984121     -2250.8799     -21354.723    
     16500   139.31576      276.9925      -2256.9855      6.0866955     -2250.8988     -21830.478    
     16550   144.07033      286.44571     -2257.2078      6.2944224     -2250.9134     -19405.085    
     16600   146.69452      291.66323     -2257.3296      6.4090732     -2250.9206     -18727.251    
     16650   134.98225      268.37648     -2256.8153      5.8973651     -2250.9179     -23244.566    
     16700   130.13541      258.73982     -2256.6226      5.6856069     -2250.9369     -19485.469    
     16750   138.41462      275.20084     -2256.9949      6.047325      -2250.9476     -22286.383    
     16800   139.01623      276.39698     -2257.0226      6.0736093     -2250.949      -23154.965    
     16850   139.51832      277.39525     -2257.0521      6.0955456     -2250.9566     -22276.226    
     16900   137.02361      272.43517     -2256.9525      5.9865517     -2250.966      -19341.436    
     16950   142.88947      284.09789     -2257.2099      6.2428309     -2250.967      -23825.831    
     17000   140.92013      280.18238     -2257.1297      6.1567905     -2250.9729     -23169.489    
     17050   137.3766       273.137       -2256.9811      6.0019739     -2250.9792     -21615.903    
     17100   129.98054      258.43189     -2256.6628      5.6788404     -2250.984      -20797.378    
     17150   146.36413      291.00633     -2257.3854      6.3946385     -2250.9908     -19894.972    
     17200   137.56109      273.50381     -2257.0049      6.0100341     -2250.9948     -23039.539    
     17250   144.05045      286.4062      -2257.2908      6.2935541     -2250.9973     -22963.689    
     17300   140.51675      279.38036     -2257.1384      6.1391668     -2250.9993     -22400.527    
     17350   142.94748      284.21323     -2257.2468      6.2453655     -2251.0014     -21995.32     
     17400   133.74526      265.91704     -2256.8444      5.8433209     -2251.0011     -19842.093    
     17450   133.12214      264.67813     -2256.8169      5.8160968     -2251.0008     -21503.565    
     17500   143.12199      284.56018     -2257.2553      6.2529894     -2251.0023     -20675.828    
     17550   131.53751      261.52751     -2256.7458      5.7468644     -2250.9989     -20160.181    
     17600   138.25463      274.88274     -2257.0331      6.0403351     -2250.9927     -18672.596    
     17650   139.42879      277.21725     -2257.0848      6.0916341     -2250.9932     -21795.775    
     17700   140.53068      279.40806     -2257.1358      6.1397754     -2250.996      -19852.186    
     17750   134.92579      268.26421     -2256.8842      5.8948981     -2250.9893     -24631.284    
     17800   125.56194      249.64668     -2256.4698      5.4857922     -2250.984      -22322.971    
     17850   126.94265      252.39185     -2256.5281      5.5461152     -2250.982      -18180.592    
     17900   136.53789      271.46945     -2256.9385      5.9653306     -2250.9732     -17283.162    
     17950   141.00768      280.35644     -2257.119       6.1606154     -2250.9584     -22255.874    
     18000   138.99194      276.34868     -2257.0213      6.0725479     -2250.9487     -19832.474    
     18050   134.11494      266.65205     -2256.8112      5.859472      -2250.9517     -18706.077    
     18100   149.21855      296.68158     -2257.4541      6.5193476     -2250.9348     -22277.219    
     18150   143.2805       284.87535     -2257.1913      6.259915      -2250.9314     -21317.694    
     18200   136.97449      272.33752     -2256.9006      5.9844059     -2250.9162     -22539.443    
     18250   138.25499      274.88345     -2256.9495      6.0403508     -2250.9091     -20446.905    
     18300   125.635        249.79193     -2256.3882      5.488984      -2250.8992     -19199.969    
     18350   130.997        260.45286     -2256.6114      5.7232497     -2250.8882     -22246.107    
     18400   140.23692      278.82398     -2257.0032      6.1269409     -2250.8763     -22275.695    
     18450   137.89432      274.16636     -2256.8883      6.0245932     -2250.8638     -19794.178    
     18500   134.60411      267.62465     -2256.7219      5.8808442     -2250.8411     -16662.036    
     18550   141.83182      281.99503     -2257.0348      6.1966222     -2250.8382     -19228.277    
     18600   152.60821      303.42104     -2257.4914      6.667442      -2250.8239     -24107.802    
     18650   150.84695      299.91922     -2257.3954      6.5904924     -2250.8049     -19379.293    
     18700   137.56025      273.50214     -2256.8003      6.0099975     -2250.7903     -22431.973    
     18750   144.65783      287.6138      -2257.1065      6.3200902     -2250.7864     -21296.511    
     18800   139.6202       277.59781     -2256.8688      6.0999966     -2250.7688     -24310.93     
     18850   150.3636       298.95822     -2257.3232      6.569375      -2250.7539     -24673.426    
     18900   139.38345      277.1271      -2256.8228      6.0896531     -2250.7332     -24396.57     
     18950   128.57638      255.64009     -2256.3306      5.6174927     -2250.7132     -25397.21     
     19000   137.57891      273.53925     -2256.7062      6.0108129     -2250.6954     -18500.146    
     19050   137.96277      274.30245     -2256.7058      6.0275838     -2250.6782     -21644.765    
     19100   137.58499      273.55132     -2256.6656      6.0110783     -2250.6546     -25390.093    
     19150   140.16871      278.68837     -2256.7606      6.1239609     -2250.6367     -22951.293    
     19200   138.10937      274.59393     -2256.6569      6.0339888     -2250.6229     -21154.296    
     19250   148.60023      295.45222     -2257.086       6.4923333     -2250.5937     -21315.173    
     19300   146.77347      291.82019     -2256.9907      6.4125225     -2250.5782     -24512.461    
     19350   137.80754      273.99382     -2256.5692      6.0208017     -2250.5484     -22566.934    
     19400   148.2773       294.81016     -2257.0133      6.4782247     -2250.5351     -21854.724    
     19450   151.41883      301.05626     -2257.1288      6.6154778     -2250.5133     -18874.988    
     19500   144.19368      286.69097     -2256.7868      6.2998117     -2250.487      -17793.218    
     19550   146.37435      291.02665     -2256.8471      6.3950849     -2250.452      -21878.322    
     19600   137.04373      272.47518     -2256.4248      5.9874307     -2250.4373     -21838.346    
     19650   144.23047      286.76411     -2256.7185      6.301419      -2250.4171     -22425.257    
     19700   141.25986      280.85784     -2256.558       6.1716334     -2250.3864     -21367.249    
     19750   140.93062      280.20323     -2256.526       6.1572486     -2250.3688     -24302.549    
     19800   142.87079      284.06074     -2256.5909      6.2420146     -2250.3489     -21575.534    
     19850   156.3643       310.88903     -2257.1521      6.8315454     -2250.3206     -21767.677    
     19900   136.5152       271.42433     -2256.2616      5.9643393     -2250.2973     -25117.698    
     19950   138.99188      276.34857     -2256.3394      6.0725456     -2250.2668     -23264.933    
     20000   137.81528      274.0092      -2256.265       6.0211398     -2250.2439     -23719.174    
     20050   139.44613      277.25172     -2256.3084      6.0923916     -2250.216      -24241.962    
     20100   133.64513      265.71796     -2256.0331      5.8389462     -2250.1942     -21857.244    
     20150   142.53028      283.38374     -2256.3965      6.227138      -2250.1694     -23733.104    
     20200   151.28398      300.78815     -2256.7587      6.6095863     -2250.1491     -23656.918    
     20250   144.70045      287.69855     -2256.4411      6.3219526     -2250.1192     -28185.392    
     20300   154.85093      307.88007     -2256.8643      6.7654259     -2250.0989     -24050.985    
     20350   140.1948       278.74026     -2256.1906      6.125101      -2250.0655     -22517.894    
     20400   150.04094      298.31669     -2256.6048      6.5552779     -2250.0495     -25537.196    
     20450   152.03297      302.27733     -2256.6615      6.6423099     -2250.0192     -23043.24     
     20500   145.43419      289.15739     -2256.347       6.3540095     -2249.993      -23479.705    
     20550   145.86722      290.01835     -2256.331       6.3729285     -2249.9581     -21568.354    
     20600   157.64555      313.43644     -2256.8277      6.8875227     -2249.9401     -20585.967    
     20650   152.69243      303.58848     -2256.5739      6.6711215     -2249.9028     -18391.201    
     20700   150.82921      299.88396     -2256.4732      6.5897175     -2249.8835     -20311.252    
     20750   153.84024      305.8706      -2256.5747      6.7212694     -2249.8534     -24116.236    
     20800   153.79599      305.78262     -2256.5448      6.7193361     -2249.8255     -22413.697    
     20850   155.46095      309.09294     -2256.5973      6.7920777     -2249.8052     -21425.444    
     20900   144.67621      287.65034     -2256.0956      6.3208932     -2249.7747     -23275.678    
     20950   161.73712      321.57145     -2256.8195      7.0662832     -2249.7532     -22423.213    
     21000   158.62463      315.38309     -2256.6594      6.9302989     -2249.7291     -23550.687    
     21050   154.24534      306.67603     -2256.4461      6.7389679     -2249.7072     -22620.924    
     21100   159.85781      317.83494     -2256.6694      6.9841763     -2249.6852     -19542.461    
     21150   140.57259      279.49139     -2255.7968      6.1416065     -2249.6552     -23363.243    
     21200   141.59734      281.52882     -2255.8197      6.1863776     -2249.6334     -23583.622    
     21250   145.49548      289.27924     -2255.9776      6.356687      -2249.6209     -21468.771    
     21300   152.65903      303.52206     -2256.2595      6.669662      -2249.5898     -23211.847    
     21350   153.48062      305.15559     -2256.2676      6.7055575     -2249.562      -23938.064    
     21400   144.23859      286.78026     -2255.8433      6.3017738     -2249.5415     -23716.236    
     21450   156.89802      311.95018     -2256.3738      6.8548633     -2249.519      -26449.503    
     21500   158.21729      314.57321     -2256.4149      6.9125023     -2249.5024     -20306.18     
     21550   137.74539      273.87024     -2255.4882      6.0180862     -2249.4701     -18816.32     
     21600   154.58513      307.35161     -2256.2106      6.7538134     -2249.4567     -25081.837    
     21650   143.88239      286.07205     -2255.7166      6.2862114     -2249.4304     -21843.422    
     21700   150.87157      299.96817     -2255.9962      6.591568      -2249.4046     -22979.578    
     21750   159.44491      317.01399     -2256.3462      6.9661366     -2249.38       -23200.985    
     21800   158.81861      315.76877     -2256.2968      6.938774      -2249.3581     -23031.346    
     21850   173.31251      344.58604     -2256.9123      7.5720112     -2249.3403     -20588.73     
     21900   162.3351       322.76037     -2256.4023      7.0924089     -2249.3099     -20513.985    
     21950   143.54247      285.3962      -2255.5549      6.2713602     -2249.2835     -21313.213    
     22000   151.18585      300.59305     -2255.8776      6.6052991     -2249.2723     -16226.184    
     22050   144.05623      286.41768     -2255.5389      6.2938064     -2249.2451     -23996.598    
     22100   163.56103      325.19781     -2256.3758      7.1459697     -2249.2298     -21431.106    
     22150   155.6148       309.39884     -2256.0089      6.7987997     -2249.2101     -21957.547    
     22200   149.86176      297.96044     -2255.7406      6.5474497     -2249.1931     -25206.022    
     22250   164.70801      327.47827     -2256.3781      7.1960811     -2249.182      -23744.951    
     22300   150.82041      299.86646     -2255.7464      6.5893329     -2249.1571     -18729.711    
     22350   160.51656      319.14469     -2256.1611      7.012957      -2249.1481     -21500.845    
     22400   143.59767      285.50595     -2255.3954      6.273772      -2249.1216     -23103.551    
     22450   156.44379      311.04706     -2255.9436      6.8350181     -2249.1086     -19697.469    
     22500   159.41305      316.95066     -2256.0555      6.964745      -2249.0907     -20389.586    
     22550   157.12382      312.39912     -2255.9349      6.8647285     -2249.0702     -22394.021    
     22600   166.77922      331.59632     -2256.3443      7.2865721     -2249.0577     -24200.912    
     22650   158.61453      315.36301     -2255.9671      6.9298576     -2249.0372     -24442.155    
     22700   146.1723       290.62493     -2255.4099      6.3862575     -2249.0237     -22827.46     
     22750   150.40988      299.05024     -2255.5873      6.5713972     -2249.0159     -19085.875    
     22800   146.15152      290.5836      -2255.3697      6.3853494     -2248.9844     -21757.089    
     22850   153.08667      304.37232     -2255.6687      6.6883457     -2248.9804     -25303.307    
     22900   150.42704      299.08435     -2255.5427      6.5721468     -2248.9706     -22522.331    
     22950   160.75718      319.6231      -2255.9703      7.0234698     -2248.9469     -20946.539    
     23000   159.79268      317.70545     -2255.9111      6.9813309     -2248.9298     -26562.833    
     23050   158.63458      315.40288     -2255.8362      6.9307337     -2248.9054     -22782.477    
     23100   159.73433      317.58943     -2255.8767      6.9787814     -2248.8979     -24561.405    
     23150   157.71342      313.57139     -2255.7722      6.8904882     -2248.8817     -26906.826    
     23200   162.99184      324.06614     -2255.9981      7.1211021     -2248.877      -24709.205    
     23250   153.21464      304.62676     -2255.5537      6.6939369     -2248.8598     -20590.584    
     23300   152.05849      302.32806     -2255.4923      6.6434247     -2248.8489     -19725.826    
     23350   161.3831       320.86758     -2255.8897      7.0508163     -2248.8389     -21901.574    
     23400   159.79567      317.7114      -2255.822       6.9814617     -2248.8406     -18876.477    
     23450   169.9235       337.84791     -2256.2501      7.4239458     -2248.8261     -20819.334    
     23500   151.88026      301.97369     -2255.4487      6.6356378     -2248.8131     -25227.378    
     23550   166.70071      331.44023     -2256.0932      7.283142      -2248.81       -20631.762    
     23600   161.33951      320.7809      -2255.8471      7.0489117     -2248.7982     -20973.34     
     23650   162.04933      322.19219     -2255.8675      7.0799237     -2248.7875     -23350.544    
     23700   163.89871      325.8692      -2255.9522      7.1607231     -2248.7915     -23230.916    
     23750   153.63765      305.46779     -2255.4964      6.7124179     -2248.784      -20340.691    
     23800   143.26063      284.83584     -2255.0252      6.2590468     -2248.7662     -19093.604    
     23850   154.15858      306.50353     -2255.5106      6.7351774     -2248.7754     -18455.899    
     23900   159.32269      316.77099     -2255.7286      6.9607969     -2248.7678     -20103.793    
     23950   166.10051      330.2469      -2256.019       7.2569195     -2248.7621     -21413.064    
     24000   169.11236      336.23517     -2256.1561      7.3885072     -2248.7676     -22104.369    
     24050   165.84295      329.7348      -2256.0053      7.2456667     -2248.7597     -20188.687    
     24100   155.11897      308.41301     -2255.5342      6.7771368     -2248.7571     -23121.076    
     24150   178.16749      354.2389      -2256.5486      7.7841251     -2248.7644     -23594.231    
     24200   169.82306      337.6482      -2256.1849      7.4195573     -2248.7653     -19267.601    
     24250   162.54938      323.18641     -2255.8684      7.1017707     -2248.7667     -20610.709    
     24300   155.28483      308.74277     -2255.5538      6.784383      -2248.7694     -21729.748    
     24350   160.0839       318.28445     -2255.7649      6.994054      -2248.7708     -27017.615    
     24400   164.43911      326.94364     -2255.9616      7.1843329     -2248.7773     -18791.023    
     24450   166.52245      331.08582     -2256.0564      7.2753541     -2248.7811     -24707.422    
     24500   152.0857       302.38215     -2255.4377      6.6446133     -2248.7931     -23482.716    
     24550   147.65892      293.58067     -2255.2507      6.4512076     -2248.7995     -26483.371    
     24600   151.20976      300.64058     -2255.4116      6.6063437     -2248.8052     -24043.642    
     24650   156.24927      310.66032     -2255.6464      6.8265197     -2248.8199     -24003.401    
     24700   151.09901      300.42038     -2255.4181      6.601505      -2248.8166     -25886.248    
     24750   169.27926      336.56701     -2256.2306      7.3957991     -2248.8348     -23544.769    
     24800   158.56945      315.27337     -2255.7642      6.9278878     -2248.8363     -22017.33     
     24850   158.85646      315.84403     -2255.7813      6.9404276     -2248.8409     -24173.846    
     24900   149.94776      298.13143     -2255.3988      6.551207      -2248.8476     -23866.268    
     24950   155.30233      308.77758     -2255.6472      6.785148      -2248.8621     -23686.659    
     25000   159.94299      318.0043      -2255.8653      6.9878978     -2248.8775     -17265.705    
     25050   163.96368      325.99838     -2256.0625      7.1635617     -2248.8989     -21966.36     
     25100   162.95482      323.99252     -2256.029       7.1194844     -2248.9095     -22392.913    
     25150   156.38655      310.93326     -2255.7483      6.8325174     -2248.9158     -25039.363    
     25200   158.06155      314.26355     -2255.8398      6.9056978     -2248.9341     -22480.418    
     25250   153.47054      305.13553     -2255.6511      6.7051168     -2248.946      -23149.734    
     25300   147.2452       292.75811     -2255.3897      6.4331325     -2248.9565     -23980.243    
     25350   176.19647      350.32004     -2256.6799      7.6980112     -2248.9819     -21263.557    
     25400   157.81641      313.77616     -2255.8881      6.8949879     -2248.9931     -24582.701    
     25450   162.18668      322.46528     -2256.0956      7.0859246     -2249.0097     -20138.724    
     25500   182.20246      362.26137     -2257.0039      7.9604126     -2249.0435     -22477.934    
     25550   174.83008      347.60333     -2256.6927      7.6383137     -2249.0544     -24400.363    
     25600   163.79212      325.65727     -2256.236       7.156066      -2249.08       -25861.384    
     25650   160.72498      319.55907     -2256.1146      7.0220628     -2249.0926     -24282.942    
     25700   158.42475      314.98568     -2256.0351      6.921566      -2249.1136     -23812.319    
     25750   156.87681      311.90802     -2255.9969      6.8539368     -2249.1429     -17334.972    
     25800   162.85249      323.78907     -2256.2879      7.1150138     -2249.1729     -22517.732    
     25850   160.09659      318.30969     -2256.1907      6.9946087     -2249.1961     -22582.233    
     25900   154.20184      306.58954     -2255.956       6.7370674     -2249.2189     -25080.524    
     25950   160.3322       318.77814     -2256.2458      7.0049024     -2249.2409     -22450.539    
     26000   155.19385      308.56189     -2256.054       6.7804083     -2249.2736     -24593.333    
     26050   156.02659      310.21757     -2256.1197      6.8167905     -2249.303      -20621.658    
     26100   162.18908      322.47004     -2256.4117      7.0860292     -2249.3257     -22648.585    
     26150   161.29659      320.69557     -2256.4004      7.0470364     -2249.3533     -22791.155    
     26200   163.04399      324.16981     -2256.5058      7.1233803     -2249.3824     -23494.289    
     26250   159.44018      317.00459     -2256.3728      6.96593       -2249.4069     -22189.949    
     26300   147.79846      293.85811     -2255.8902      6.4573041     -2249.4329     -21100.34     
     26350   146.07691      290.43528     -2255.8377      6.38209       -2249.4557     -21498.981    
     26400   154.14887      306.48423     -2256.2163      6.7347533     -2249.4815     -24047.828    
     26450   156.95428      312.06204     -2256.3704      6.8573214     -2249.5131     -22979.199    
     26500   149.90888      298.05413     -2256.0855      6.5495084     -2249.536      -24286.613    
     26550   153.01616      304.23212     -2256.2478      6.685265      -2249.5625     -23509.357    
     26600   168.09759      334.21757     -2256.9414      7.3441719     -2249.5973     -19312.549    
     26650   153.80176      305.7941      -2256.3487      6.7195882     -2249.6291     -18448.215    
     26700   163.36246      324.803       -2256.7856      7.1372941     -2249.6483     -27428.467    
     26750   168.93096      335.87449     -2257.0617      7.3805815     -2249.6812     -21434.69     
     26800   162.06333      322.22003     -2256.7896      7.0805353     -2249.709      -21602.931    
     26850   145.81791      289.92032     -2256.1002      6.3707741     -2249.7294     -23608.657    
     26900   151.31396      300.84775     -2256.3646      6.6108961     -2249.7537     -24091.647    
     26950   171.32178      340.628       -2257.2677      7.4850363     -2249.7826     -20977.567    
     27000   149.88959      298.01577     -2256.3526      6.5486655     -2249.8039     -19668.588    
     27050   144.31365      286.9295      -2256.1269      6.3050533     -2249.8218     -21287.903    
     27100   141.25565      280.84947     -2256.0106      6.1714493     -2249.8391     -19396.253    
     27150   148.8865       296.02139     -2256.3759      6.5048406     -2249.8711     -21064.208    
     27200   146.57007      291.41579     -2256.2999      6.4036361     -2249.8963     -19087.566    
     27250   148.2635       294.78273     -2256.4         6.4776219     -2249.9223     -19145.821    
     27300   148.56199      295.37619     -2256.4439      6.4906628     -2249.9532     -21887.904    
     27350   152.37017      302.94775     -2256.6273      6.6570419     -2249.9703     -18696.01     
     27400   154.84579      307.86986     -2256.7648      6.7652016     -2249.9996     -19556.997    
     27450   152.00641      302.22451     -2256.6601      6.6411493     -2250.019      -18476.394    
     27500   141.71948      281.77167     -2256.2318      6.191714      -2250.0401     -21121.717    
     27550   158.3543       314.84561     -2256.9922      6.9184882     -2250.0738     -21642.448    
     27600   146.43487      291.14697     -2256.5006      6.3977289     -2250.1028     -23945.475    
     27650   161.23523      320.57357     -2257.1807      7.0443557     -2250.1363     -23224.217    
     27700   150.78519      299.79644     -2256.7513      6.5877942     -2250.1635     -22511.152    
     27750   147.11339      292.49604     -2256.6161      6.4273737     -2250.1888     -22552.282    
     27800   144.8616       288.01895     -2256.5339      6.3289932     -2250.2049     -23530.245    
     27850   135.65319      269.71045     -2256.1458      5.9266781     -2250.2192     -24789.525    
     27900   134.87216      268.1576      -2256.1445      5.8925553     -2250.2519     -24317.398    
     27950   146.39064      291.05904     -2256.6753      6.3957966     -2250.2795     -19777.625    
     28000   145.88273      290.04919     -2256.6723      6.3736061     -2250.2987     -23204.701    
     28050   129.11041      256.70188     -2255.959       5.6408247     -2250.3182     -23854.421    
     28100   143.43162      285.17581     -2256.6016      6.2665173     -2250.3351     -26423.561    
     28150   147.27464      292.81664     -2256.7905      6.4344187     -2250.3561     -21987.717    
     28200   136.37658      271.14873     -2256.3295      5.9582832     -2250.3713     -21716.951    
     28250   144.18989      286.68342     -2256.688       6.2996458     -2250.3884     -21365.977    
     28300   138.79454      275.9562      -2256.4674      6.0639235     -2250.4035     -22207.662    
     28350   153.26486      304.7266      -2257.1168      6.6961308     -2250.4207     -17487.461    
     28400   149.26022      296.76443     -2256.9644      6.5211683     -2250.4433     -18668.151    
     28450   139.32589      277.01265     -2256.5409      6.0871382     -2250.4537     -22835.457    
     28500   144.49802      287.29607     -2256.7878      6.3131083     -2250.4747     -16976.657    
     28550   144.57554      287.45019     -2256.8046      6.316495      -2250.4881     -19543.416    
     28600   154.36314      306.91025     -2257.2491      6.7441148     -2250.505      -20054.909    
     28650   147.18063      292.62972     -2256.9575      6.4303112     -2250.5271     -19988.288    
     28700   159.38977      316.90436     -2257.5143      6.9637275     -2250.5506     -21507.003    
     28750   150.24929      298.73095     -2257.1444      6.564381      -2250.58       -26366.069    
     28800   145.71853      289.72273     -2256.9552      6.3664323     -2250.5887     -20561.88     
     28850   155.42598      309.02342     -2257.4023      6.79055       -2250.6117     -22859.275    
     28900   134.16446      266.75051     -2256.4934      5.8616357     -2250.6317     -20255.367    
     28950   135.87091      270.14333     -2256.5924      5.9361903     -2250.6562     -21627.089    
     29000   134.0873       266.5971      -2256.5301      5.8582645     -2250.6719     -19525.993    
     29050   135.12372      268.65774     -2256.5923      5.9035456     -2250.6888     -21640.047    
     29100   137.92387      274.22511     -2256.7354      6.0258841     -2250.7095     -21203.204    
     29150   136.585        271.56311     -2256.6763      5.9673888     -2250.7089     -21258.957    
     29200   140.81812      279.97956     -2256.8785      6.1523338     -2250.7262     -21516.825    
     29250   139.63633      277.62989     -2256.8435      6.1007015     -2250.7428     -22226.517    
     29300   147.8632       293.98684     -2257.2271      6.4601328     -2250.767      -20250.459    
     29350   142.75654      283.83359     -2257.0051      6.2370232     -2250.7681     -21704.613    
     29400   141.50815      281.3515      -2256.9683      6.1824811     -2250.7858     -24708.107    
     29450   133.10824      264.65051     -2256.603       5.8154897     -2250.7875     -22654.26     
     29500   143.82316      285.95428     -2257.0788      6.2836236     -2250.7952     -24973.042    
     29550   138.59786      275.56515     -2256.8696      6.0553305     -2250.8143     -20691.166    
     29600   143.00435      284.32629     -2257.0822      6.2478498     -2250.8344     -21487.738    
     29650   143.23919      284.79322     -2257.0958      6.2581101     -2250.8377     -18005.991    
     29700   148.14035      294.53787     -2257.3286      6.4722414     -2250.8563     -20009.275    
     29750   143.92085      286.1485      -2257.1431      6.2878915     -2250.8552     -25663.162    
     29800   143.51897      285.34947     -2257.1342      6.2703334     -2250.8639     -23850.694    
     29850   140.26668      278.88317     -2257.0018      6.1282415     -2250.8736     -21697.652    
     29900   140.77214      279.88814     -2257.0243      6.1503249     -2250.874      -20120.844    
     29950   152.50036      303.2066      -2257.5439      6.6627299     -2250.8812     -23408.088    
     30000   132.92981      264.29575     -2256.6906      5.8076941     -2250.8829     -19397.842    
     30050   146.58303      291.44155     -2257.3056      6.404202      -2250.9014     -20802.7      
     30100   150.87085      299.96675     -2257.4949      6.5915368     -2250.9034     -23019.325    
     30150   144.96941      288.23329     -2257.2434      6.3337031     -2250.9097     -21326.053    
     30200   130.06167      258.59321     -2256.5955      5.6823853     -2250.9131     -22324.147    
     30250   144.99479      288.28376     -2257.251       6.3348122     -2250.9162     -22699.039    
     30300   146.42364      291.12465     -2257.3294      6.3972384     -2250.9322     -23495.974    
     30350   134.03508      266.49328     -2256.7858      5.8559833     -2250.9299     -21121.479    
     30400   152.89005      303.9814      -2257.628       6.6797555     -2250.9482     -19854.632    
     30450   146.28898      290.85692     -2257.3441      6.3913553     -2250.9527     -22314.962    
     30500   151.4522       301.1226      -2257.5776      6.6169357     -2250.9607     -20271.679    
     30550   137.09656      272.58023     -2256.9539      5.9897392     -2250.9642     -21227.786    
     30600   134.58564      267.58792     -2256.8493      5.880037      -2250.9693     -25605.788    
     30650   142.72335      283.76759     -2257.2171      6.2355728     -2250.9815     -22587.525    
     30700   137.50749      273.39725     -2256.989       6.0076925     -2250.9813     -20967.78     
     30750   146.38092      291.03972     -2257.3812      6.3953722     -2250.9859     -23086.845    
     30800   142.4088       283.1422      -2257.2188      6.2218304     -2250.997      -21250.444    
     30850   130.55995      259.5839      -2256.6979      5.7041548     -2250.9938     -25975.092    
     30900   136.82069      272.03172     -2256.9838      5.9776861     -2251.0061     -23289.304    
     30950   147.65892      293.58068     -2257.4657      6.4512078     -2251.0145     -21114.534    
     31000   137.40863      273.20068     -2257.0155      6.0033731     -2251.0121     -23602.204    
     31050   137.68392      273.74802     -2257.0253      6.0154005     -2251.0099     -22457.276    
     31100   143.47388      285.25983     -2257.2779      6.2683636     -2251.0096     -20483.229    
     31150   137.50005      273.38245     -2257.0148      6.0073674     -2251.0074     -23150.136    
     31200   144.47916      287.25857     -2257.318       6.3122844     -2251.0058     -23643.418    
     31250   142.32021      282.96606     -2257.2209      6.2179598     -2251.0029     -25787.447    
     31300   134.51168      267.44087     -2256.8774      5.8768058     -2251.0006     -23526.103    
     31350   139.4773       277.3137      -2257.0832      6.0937535     -2250.9895     -25743.82     
     31400   135.77996      269.96251     -2256.9146      5.9322168     -2250.9824     -26377.205    
     31450   137.65886      273.69821     -2256.9984      6.014306      -2250.9841     -23832.387    
     31500   143.10321      284.52285     -2257.2324      6.252169      -2250.9803     -23536.83     
     31550   135.67437      269.75256     -2256.8989      5.9276034     -2250.9713     -22407.183    
     31600   142.00724      282.34381     -2257.1777      6.2042864     -2250.9735     -20675.167    
     31650   136.79471      271.98007     -2256.9369      5.9765512     -2250.9603     -20756.916    
     31700   149.95806      298.1519      -2257.5043      6.5516569     -2250.9526     -24333.462    
     31750   158.97343      316.07658     -2257.8985      6.9455378     -2250.9529     -22693.595    
     31800   148.70824      295.66697     -2257.4382      6.4970523     -2250.9412     -23380.967    
     31850   159.3182       316.76207     -2257.8916      6.9606009     -2250.931      -23616.12     
     31900   137.22472      272.83502     -2256.913       5.9953381     -2250.9176     -20034.076    
     31950   150.1725       298.57826     -2257.4733      6.5610257     -2250.9122     -19685.731    
     32000   145.83177      289.94787     -2257.2834      6.3713797     -2250.912      -24182.099    
     32050   144.11238      286.52933     -2257.1938      6.2962598     -2250.8976     -24943.131    
     32100   144.00705      286.31989     -2257.1859      6.2916577     -2250.8942     -23665.388    
     32150   145.49055      289.26945     -2257.24        6.3564719     -2250.8835     -19971.853    
     32200   160.41603      318.94481     -2257.8939      7.008565      -2250.8853     -22611.284    
     32250   128.81809      256.12066     -2256.4914      5.628053      -2250.8633     -23944.221    
     32300   139.40553      277.17099     -2256.9433      6.0906176     -2250.8527     -25696.699    
     32350   135.21671      268.84264     -2256.7461      5.9076087     -2250.8385     -22231.175    
     32400   136.90702      272.20337     -2256.8084      5.9814579     -2250.827      -22551.207    
     32450   156.63511      311.42746     -2257.6663      6.843377      -2250.8229     -23309.379    
     32500   137.84164      274.06162     -2256.8326      6.0222917     -2250.8103     -24122.682    
     32550   146.18728      290.65472     -2257.1845      6.386912      -2250.7976     -25059.583    
     32600   134.45746      267.33306     -2256.6618      5.8744368     -2250.7873     -23487.829    
     32650   150.46371      299.15725     -2257.3535      6.5737486     -2250.7797     -25084.743    
     32700   151.57428      301.36532     -2257.3896      6.6222693     -2250.7673     -23850.834    
     32750   141.67119      281.67567     -2256.9387      6.1896044     -2250.7491     -23756.24     
     32800   136.45474      271.30413     -2256.6924      5.9616979     -2250.7307     -26955.084    
     32850   146.41025      291.09803     -2257.1209      6.3966534     -2250.7243     -26460.399    
[...]
    192000   132.0484       262.54328     -2259.1445      5.7691851     -2253.3753     -25480.156    
    192050   138.79138      275.94992     -2259.4406      6.0637856     -2253.3768     -25632.965    
    192100   148.37795      295.01027     -2259.8644      6.4826219     -2253.3818     -29133.232    
    192150   149.80125      297.84012     -2259.9165      6.5448058     -2253.3717     -20901.523    
    192200   138.16887      274.71222     -2259.4071      6.036588      -2253.3705     -23377.471    
    192250   158.59939      315.33291     -2260.3015      6.9291961     -2253.3723     -22464.396    
    192300   138.74981      275.86726     -2259.4361      6.0619692     -2253.3741     -17940.869    
    192350   139.95934      278.27211     -2259.4832      6.1148138     -2253.3684     -24073.457    
    192400   150.79986      299.8256      -2259.9557      6.5884351     -2253.3672     -25201.446    
    192450   151.45632      301.13081     -2259.9894      6.617116      -2253.3723     -26526.532    
    192500   143.84394      285.99561     -2259.6495      6.2845317     -2253.365      -24959.917    
    192550   143.70129      285.71198     -2259.6367      6.2782992     -2253.3584     -26178.741    
    192600   139.54433      277.44695     -2259.4581      6.0966817     -2253.3615     -27800.945    
    192650   141.21159      280.76186     -2259.5253      6.1695243     -2253.3558     -25164.269    
    192700   140.96369      280.26899     -2259.5182      6.1586938     -2253.3595     -23764.564    
    192750   152.81677      303.8357      -2260.0309      6.6765539     -2253.3543     -22514.565    
    192800   144.42093      287.14279     -2259.6591      6.3097403     -2253.3494     -22897.263    
    192850   150.70734      299.64165     -2259.9284      6.584393      -2253.344      -22552.391    
    192900   137.50288      273.38808     -2259.3464      6.007491      -2253.3389     -24679.661    
    192950   142.79488      283.90983     -2259.5751      6.2386983     -2253.3364     -21165.201    
    193000   140.29068      278.93088     -2259.4668      6.1292897     -2253.3375     -23684.134    
    193050   142.85816      284.03564     -2259.5662      6.241463      -2253.3247     -29617.415    
    193100   147.18591      292.64022     -2259.7479      6.4305418     -2253.3173     -23898.457    
    193150   135.26516      268.93897     -2259.2284      5.9097253     -2253.3187     -26609.489    
    193200   147.87794      294.01615     -2259.7728      6.4607768     -2253.3121     -23949.587    
    193250   145.48472      289.25785     -2259.6651      6.356217      -2253.3089     -26273.741    
    193300   146.22848      290.73662     -2259.6875      6.3887117     -2253.2987     -25563.364    
    193350   138.1695       274.71348     -2259.3302      6.0366158     -2253.2936     -24128.605    
    193400   157.80578      313.75502     -2260.1882      6.8945232     -2253.2936     -23564.712    
    193450   137.28732      272.9595      -2259.2763      5.9980733     -2253.2782     -24248.157    
    193500   142.84113      284.00177     -2259.5211      6.2407187     -2253.2803     -24637.111    
    193550   142.88923      284.09741     -2259.5105      6.2428203     -2253.2677     -25213.486    
    193600   148.81064      295.87056     -2259.7628      6.5015262     -2253.2613     -26411.226    
    193650   150.31884      298.86921     -2259.8223      6.5674193     -2253.2549     -27536.922    
    193700   138.54001      275.45015     -2259.302       6.0528034     -2253.2492     -22614.164    
    193750   148.96236      296.17222     -2259.7397      6.508155      -2253.2316     -25944.575    
    193800   141.12826      280.59619     -2259.3899      6.1658836     -2253.224      -28784.564    
    193850   156.31682      310.79462     -2260.0494      6.8294709     -2253.22       -27519.35     
    193900   143.58242      285.47563     -2259.4815      6.2731056     -2253.2084     -24069.442    
    193950   142.32118      282.96798     -2259.4181      6.2180021     -2253.2001     -25379.45     
    194000   145.0648       288.42296     -2259.5297      6.337871      -2253.1918     -24260.536    
    194050   136.95915      272.30702     -2259.1528      5.9837357     -2253.169      -21833.913    
    194100   149.24668      296.73752     -2259.6848      6.5205769     -2253.1642     -24959.506    
    194150   149.09792      296.44175     -2259.6712      6.5140776     -2253.1571     -27842.758    
    194200   147.96786      294.19492     -2259.6104      6.4647053     -2253.1457     -26266.441    
    194250   148.7771       295.80389     -2259.637       6.5000611     -2253.1369     -24114.315    
    194300   140.62621      279.59799     -2259.2689      6.143949      -2253.125      -31854.192    
    194350   155.21643      308.60678     -2259.895       6.7813947     -2253.1136     -26799.969    
    194400   143.3909       285.09485     -2259.3679      6.2647384     -2253.1031     -27227.864    
    194450   153.75131      305.69378     -2259.8108      6.7173838     -2253.0934     -26309.416    
    194500   135.49464      269.39523     -2258.9914      5.9197514     -2253.0716     -22073.017    
    194550   126.82374      252.15544     -2258.5979      5.5409204     -2253.057      -28236.569    
    194600   152.37657      302.96047     -2259.7106      6.6573215     -2253.0533     -25084.271    
    194650   138.80173      275.97049     -2259.0997      6.0642375     -2253.0355     -24136.626    
    194700   162.53176      323.15138     -2260.1272      7.1010011     -2253.0262     -23519.542    
    194750   149.17077      296.58659     -2259.5236      6.5172604     -2253.0063     -25345.178    
    194800   158.83579      315.80292     -2259.9354      6.9395244     -2252.9959     -27529.01     
    194850   140.84358      280.03018     -2259.1368      6.153446      -2252.9834     -21860.16     
    194900   133.53054      265.49013     -2258.794       5.8339398     -2252.9601     -25695.438    
    194950   138.34597      275.06435     -2258.9856      6.0443258     -2252.9413     -24897.645    
    195000   139.82712      278.00921     -2259.0235      6.1090367     -2252.9144     -26762.742    
    195050   136.88913      272.1678      -2258.8812      5.9806765     -2252.9006     -21675.906    
    195100   157.07702      312.30607     -2259.7575      6.8626836     -2252.8948     -19978.809    
    195150   141.88919      282.10909     -2259.0698      6.1991285     -2252.8707     -22672.398    
    195200   153.13145      304.46134     -2259.553       6.690302      -2252.8627     -23320.215    
    195250   150.71067      299.64827     -2259.4335      6.5845383     -2252.8489     -25624.184    
    195300   160.0089       318.13533     -2259.8258      6.9907773     -2252.835      -26128.176    
    195350   143.30468      284.92343     -2259.0859      6.2609714     -2252.825      -23208.639    
    195400   147.7091       293.68044     -2259.2695      6.4534        -2252.8161     -23825.734    
    195450   143.39848      285.10991     -2259.0581      6.2650692     -2252.793      -24725.821    
    195500   157.4537       313.05501     -2259.6553      6.8791411     -2252.7762     -25350.778    
    195550   150.22957      298.69174     -2259.3206      6.5635194     -2252.7571     -24918.753    
    195600   146.78752      291.84814     -2259.1593      6.4131365     -2252.7462     -27450.531    
    195650   161.14491      320.39399     -2259.7733      7.0404095     -2252.7329     -25431.563    
    195700   155.97585      310.11669     -2259.5286      6.8145739     -2252.714      -23924.621    
    195750   153.29542      304.78737     -2259.4006      6.6974662     -2252.7031     -23024.182    
    195800   149.22616      296.69672     -2259.2106      6.5196804     -2252.691      -22416.565    
    195850   142.46734      283.2586      -2258.8921      6.2243881     -2252.6677     -25939.725    
    195900   148.01006      294.27883     -2259.1222      6.466549      -2252.6557     -25934.481    
    195950   151.6621       301.53994     -2259.2726      6.6261063     -2252.6465     -26634.08     
    196000   144.64447      287.58724     -2258.9558      6.3195066     -2252.6363     -25393.623    
    196050   145.30605      288.90262     -2258.9614      6.3484111     -2252.613      -24754.938    
    196100   131.64356      261.73838     -2258.3552      5.751498      -2252.6037     -26626.233    
    196150   153.01793      304.23565     -2259.2741      6.6853425     -2252.5888     -24841.077    
    196200   136.13554      270.66948     -2258.5215      5.9477519     -2252.5737     -29748.537    
    196250   153.60191      305.39674     -2259.2735      6.7108565     -2252.5627     -26983.414    
    196300   149.8511       297.93924     -2259.0921      6.5469838     -2252.5451     -24990.74     
    196350   155.33652      308.84555     -2259.3206      6.7866415     -2252.534      -27641.795    
    196400   144.07887      286.46269     -2258.8146      6.2947956     -2252.5198     -26150.91     
    196450   145.88945      290.06254     -2258.8842      6.3738995     -2252.5103     -24720.221    
    196500   150.88585      299.99658     -2259.0853      6.5921922     -2252.4931     -26256.611    
    196550   146.66822      291.61093     -2258.8883      6.4079241     -2252.4804     -24452.759    
    196600   154.74686      307.67317     -2259.2356      6.7608794     -2252.4747     -28212.774    
    196650   146.59898      291.47327     -2258.8628      6.4048992     -2252.4579     -25925.526    
    196700   164.25088      326.5694      -2259.6288      7.1761093     -2252.4527     -20609.999    
    196750   147.88574      294.03166     -2258.8932      6.4611177     -2252.4321     -24231.967    
    196800   154.55168      307.28511     -2259.1694      6.752352      -2252.417      -23936.763    
    196850   143.24194      284.79868     -2258.6708      6.2582302     -2252.4125     -19699.35     
    196900   153.24         304.67717     -2259.0972      6.6950446     -2252.4022     -20517.736    
    196950   148.48814      295.22936     -2258.8791      6.4874362     -2252.3917     -21248.725    
    197000   152.2293       302.66767     -2259.034       6.6508874     -2252.3831     -24203.173    
    197050   164.16253      326.39374     -2259.5422      7.1722493     -2252.37       -21924.088    
    197100   147.67503      293.61271     -2258.8068      6.4519116     -2252.3549     -24982.519    
    197150   158.75777      315.6478      -2259.295       6.9361157     -2252.3589     -23654.381    
    197200   160.18163      318.47877     -2259.3527      6.9983241     -2252.3544     -23467.452    
    197250   159.7707       317.66175     -2259.3272      6.9803706     -2252.3469     -26630.41     
    197300   151.66187      301.53949     -2258.9616      6.6260965     -2252.3355     -25633.549    
    197350   151.31106      300.84199     -2258.9417      6.6107695     -2252.3309     -24777.078    
    197400   153.03967      304.27887     -2259.014       6.6862923     -2252.3277     -25154.571    
    197450   144.63105      287.56055     -2258.6333      6.3189202     -2252.3144     -30785.861    
    197500   155.92806      310.02167     -2259.1271      6.8124857     -2252.3146     -24932.25     
    197550   156.88004      311.91444     -2259.1643      6.8540779     -2252.3102     -24686.833    
    197600   150.37086      298.97265     -2258.861       6.5696922     -2252.2913     -24522.306    
    197650   150.49171      299.21294     -2258.8657      6.5749723     -2252.2907     -23642.068    
    197700   150.61573      299.45951     -2258.8682      6.5803905     -2252.2878     -22993.842    
    197750   154.46321      307.1092      -2259.0362      6.7484866     -2252.2877     -25133.754    
    197800   149.51591      297.2728      -2258.8011      6.5323393     -2252.2688     -25680.888    
    197850   158.27828      314.69447     -2259.1921      6.9151669     -2252.2769     -24546.85     
    197900   159.55596      317.23479     -2259.2489      6.9709885     -2252.278      -26867.236    
    197950   146.15106      290.58269     -2258.6556      6.3853294     -2252.2703     -22850.322    
    198000   159.69633      317.51387     -2259.2418      6.9771211     -2252.2646     -23211.951    
    198050   164.35624      326.77888     -2259.4444      7.1807126     -2252.2637     -23267.06     
    198100   154.46861      307.11995     -2259.0013      6.7487228     -2252.2526     -25797.361    
    198150   154.33804      306.86033     -2259.0015      6.7430178     -2252.2584     -20418.555    
    198200   154.05123      306.29009     -2258.9828      6.7304872     -2252.2523     -24852.409    
    198250   148.17729      294.61133     -2258.7236      6.4738555     -2252.2497     -22059.368    
    198300   164.4905       327.04583     -2259.4399      7.1865785     -2252.2533     -26656.265    
    198350   152.39544      302.998       -2258.9123      6.6581461     -2252.2542     -28299.326    
    198400   153.80925      305.80899     -2258.985       6.7199154     -2252.2651     -27350.225    
    198450   145.70565      289.69712     -2258.6293      6.3658695     -2252.2635     -28492.674    
    198500   157.84467      313.83234     -2259.1555      6.8962224     -2252.2593     -25348.898    
    198550   149.90235      298.04115     -2258.8119      6.5492232     -2252.2627     -23547.997    
    198600   154.22797      306.64149     -2258.9942      6.7382089     -2252.256      -26050.54     
    198650   155.65359      309.47596     -2259.0482      6.8004942     -2252.2477     -26840.567    
    198700   149.3685       296.97972     -2258.7751      6.5258991     -2252.2492     -25468.941    
    198750   151.77778      301.76995     -2258.8883      6.6311606     -2252.2571     -24461.963    
    198800   165.377        328.80839     -2259.4849      7.2253094     -2252.2596     -24917.851    
    198850   157.92312      313.98832     -2259.1583      6.8996498     -2252.2586     -27527.97     
    198900   154.48376      307.15006     -2259.0094      6.7493845     -2252.26       -25853.601    
    198950   161.82537      321.74691     -2259.332       7.0701389     -2252.2619     -26803.809    
    199000   162.43047      322.95        -2259.3614      7.0965758     -2252.2648     -22671.237    
    199050   152.11163      302.4337      -2258.9104      6.6457462     -2252.2646     -26635.273    
    199100   152.19274      302.59499     -2258.9185      6.6492902     -2252.2692     -25904.584    
    199150   157.76348      313.67092     -2259.1617      6.8926753     -2252.269      -24738.064    
    199200   149.60254      297.44506     -2258.8038      6.5361245     -2252.2676     -24688.259    
    199250   151.90266      302.01824     -2258.9064      6.6366166     -2252.2698     -22613.822    
    199300   149.31635      296.87603     -2258.7952      6.5236205     -2252.2716     -26393.881    
    199350   139.08523      276.53417     -2258.3493      6.0766239     -2252.2727     -23116.001    
    199400   148.34793      294.95059     -2258.7594      6.4813104     -2252.2781     -21214.238    
    199450   151.31         300.83989     -2258.9006      6.6107232     -2252.2899     -23008.948    
    199500   156.39961      310.95923     -2259.1243      6.8330879     -2252.2912     -25824.474    
    199550   138.37536      275.12277     -2258.3343      6.0456096     -2252.2886     -29224.555    
    199600   162.78701      323.65889     -2259.4121      7.1121531     -2252.2999     -25135.605    
    199650   147.99995      294.25872     -2258.7713      6.4661073     -2252.3052     -25043.326    
    199700   158.61713      315.36819     -2259.2348      6.9299714     -2252.3048     -23271.149    
    199750   146.55344      291.38272     -2258.7082      6.4029094     -2252.3053     -23028.694    
    199800   152.29204      302.79242     -2258.958       6.6536286     -2252.3044     -23269.254    
    199850   155.11022      308.39562     -2259.0859      6.7767545     -2252.3092     -27230.946    
    199900   161.38704      320.87541     -2259.3646      7.0509883     -2252.3136     -23106.432    
    199950   146.08528      290.4519      -2258.6952      6.3824554     -2252.3128     -28472.72     
    200000   146.85506      291.98242     -2258.7322      6.4160873     -2252.3162     -21914.415    
colvars: Saving collective variables state to "out.colvars.state".
colvars:   Writing TI PMF to file "out.metadynamics1.ti.pmf".
Loop time of 993.02 on 4 procs for 200000 steps with 339 atoms

Performance: 8.701 ns/day, 2.758 hours/ns, 201.406 timesteps/s, 68.277 katom-step/s
131.6% CPU use with 4 MPI tasks x 1 OpenMP threads

MPI task timing breakdown:
Section |  min time  |  avg time  |  max time  |%varavg| %total
---------------------------------------------------------------
Pair    | 217.47     | 717.79     | 959.55     |1118.2 | 72.28
Neigh   | 0.033629   | 0.93057    | 1.8        |  65.8 |  0.09
Comm    | 12.148     | 76.691     | 192.61     | 800.5 |  7.72
Output  | 4.903      | 6.0812     | 7.3797     |  47.1 |  0.61
Modify  | 11.1       | 188.63     | 696.4      |2135.8 | 19.00
Other   |            | 2.904      |            |       |  0.29

Nlocal:          84.75 ave         140 max           0 min
Histogram: 1 0 0 0 0 0 1 1 0 1
Nghost:        1153.75 ave        1676 max         559 min
Histogram: 1 0 0 0 0 2 0 0 0 1
Neighs:              0 ave           0 max           0 min
Histogram: 4 0 0 0 0 0 0 0 0 0
FullNghs:      16235.5 ave       31985 max           0 min
Histogram: 1 0 0 0 1 0 1 0 0 1

Total # of neighbors = 64942
Ave neighs/atom = 191.56932
Neighbor list builds = 1574
Dangerous builds = 1
write_data final.data
System init for write_data ...
Generated 0 of 6 mixed pair_coeff terms from geometric mixing rule

CITE-CITE-CITE-CITE-CITE-CITE-CITE-CITE-CITE-CITE-CITE-CITE-CITE

Your simulation uses code contributions which should be cited:

- Colvars module (Fiorin2013, plus other works listed for specific features)


% Colvars module:
% Colvars-LAMMPS interface:
% Metadynamics colvar bias implementation:
% Optimal rotation via flexible fitting:
% distance colvar component:

@article{Fiorin2013,
  author = {Fiorin, Giacomo and Klein, Michael L.{} and H\'enin, J\'er\^ome},
  title = {Using collective variables to drive molecular dynamics simulations},
  journal = {Mol. Phys.},
  year = {2013},
  volume = {111},
  number = {22-23},
  pages = {3345--3362},
  publisher = {Taylor & Francis},
  doi = {10.1080/00268976.2013.813594},
  url = {https://doi.org/10.1080/00268976.2013.813594}
}


% Internal-forces free energy estimator:

@article{Henin2010,
  author = {H\'enin, J\'er\^ome and Fiorin, Giacomo and Chipot, Christophe and Klein, Michael L.},
  title = {Exploring multidimensional free energy landscapes using time-dependent biases on collective variables},
  journal = {J. Chem. Theory Comput.},
  year = {2010},
  volume = {6},
  pages = {35-47},
  number = {1},
  doi = {10.1021/ct9004432},
  pmid = {26614317},
  url = {https://doi.org/10.1021/ct9004432}
}


% LAMMPS engine:

@article{Thompson2022,
  title = {{LAMMPS} - a flexible simulation tool for particle-based materials modeling at the atomic, meso, and continuum scales},
  author = {Thompson, Aidan P. and Aktulga, H. Metin and Berger, Richard and Bolintineanu, Dan S. and Brown, W. Michael and Crozier, Paul S. and {in't Veld}, Pieter J. and Kohlmeyer, Axel and Moore, Stan G. and Nguyen, Trung Dac and Shan, Ray and Stevens, Mark J. and Tranchida, Julien and Trott, Christian and Plimpton, Steven J.},
  journal = {Comp. Phys. Comm.},
  volume = {271},
  pages = {108171},
  year = {2022},
  doi = {10.1016/j.cpc.2021.108171},
  url = {https://doi.org/10.1016/j.cpc.2021.108171}
}

CITE-CITE-CITE-CITE-CITE-CITE-CITE-CITE-CITE-CITE-CITE-CITE-CITE

Total wall time: 0:16:55
