 # Fe168 O56 H114 Cl
  
         339  atoms
           4  atom types
 
      0.000000000000      11.328000000000  xlo xhi
      0.000000000000      12.015000000000  ylo yhi
      0.000000000000      32.000000000000  zlo zhi
 
Masses
 
            1   55.84500000             # Fe
            2   15.99900000             # O
            3   1.00800000              # H
            4   35.45000000             # Cl
 
Atoms # atomic
 
         1    1        0.000000000000       0.000000000000       0.000000000000
         2    1        0.000000000000       2.002540050000       2.002880000000
         3    1       11.328000000000       0.000000000000       4.005120000000
         4    1        0.000000000000       2.002540050000       6.008000000000
         5    1        0.000000000000       0.000000000000       8.009920000000
         6    1        0.000000000000       2.002540050000      10.011808000000
         7    1        0.000000000000       0.000000000000      12.015008000000
         8    1        1.416000000000       2.002540050000       0.000000000000
         9    1        1.416000000000       0.000000000000       2.002880000000
        10    1        1.416000000000       2.002540050000       4.005120000000
        11    1        1.416000000000       0.000000000000       6.008000000000
        12    1        1.416000000000       2.002540050000       8.009920000000
        13    1        1.416000000000       0.000000000000      10.011808000000
        14    1        1.416000000000       2.002540050000      12.015008000000
        15    1        2.832000000000       0.000000000000       0.000000000000
        16    1        2.832000000000       2.002540050000       2.002880000000
        17    1        2.832000000000       0.000000000000       4.005120000000
        18    1        2.832000000000       2.002540050000       6.008000000000
        19    1        2.832000000000       0.000000000000       8.009920000000
        20    1        2.832000000000       2.002540050000      10.011808000000
        21    1        2.832000000000       0.000000000000      12.015008000000
        22    1        4.248000000000       2.002540050000       0.000000000000
        23    1        4.248000000000       0.000000000000       2.002880000000
        24    1        4.248000000000       2.002540050000       4.005120000000
        25    1        4.248000000000       0.000000000000       6.008000000000
        26    1        4.248000000000       2.002540050000       8.009920000000
        27    1        4.248000000000       0.000000000000      10.011808000000
        28    1        4.248000000000       2.002540050000      12.015008000000
        29    1        5.664000000000       0.000000000000       0.000000000000
        30    1        5.664000000000       2.002540050000       2.002880000000
        31    1        5.664000000000       0.000000000000       4.005120000000
        32    1        5.664000000000       2.002540050000       6.008000000000
        33    1        5.664000000000       0.000000000000       8.009920000000
        34    1        5.664000000000       2.002540050000      10.011808000000
        35    1        5.664000000000       0.000000000000      12.015008000000
        36    1        7.080000000000       2.002540050000       0.000000000000
        37    1        7.080000000000       0.000000000000       2.002880000000
        38    1        7.080000000000       2.002540050000       4.005120000000
        39    1        7.080000000000       0.000000000000       6.008000000000
        40    1        7.080000000000       2.002540050000       8.009920000000
        41    1        7.080000000000       0.000000000000      10.011808000000
        42    1        7.080000000000       2.002540050000      12.015008000000
        43    1        8.496000000000       0.000000000000       0.000000000000
        44    1        8.496000000000       2.002540050000       2.002880000000
        45    1        8.496000000000       0.000000000000       4.005120000000
        46    1        8.496000000000       2.002540050000       6.008000000000
        47    1        8.496000000000       0.000000000000       8.009920000000
        48    1        8.496000000000       2.002540050000      10.011808000000
        49    1        8.496000000000       0.000000000000      12.015008000000
        50    1        9.912000000000       2.002540050000       0.000000000000
        51    1        9.912000000000       0.000000000000       2.002880000000
        52    1        9.912000000000       2.002540050000       4.005120000000
        53    1        9.912000000000       0.000000000000       6.008000000000
        54    1        9.912000000000       2.002540050000       8.009920000000
        55    1        9.912000000000       0.000000000000      10.011808000000
        56    1        9.912000000000       2.002540050000      12.015008000000
        57    1        0.000000000000       4.004959950000       0.000000000000
        58    1        0.000000000000       6.007500000000       2.002880000000
        59    1        0.000000000000       4.004959950000       4.005120000000
        60    1        0.000000000000       6.007500000000       6.008000000000
        61    1        0.000000000000       4.004959950000       8.009920000000
        62    1       11.328000000000       6.007500000000      10.011808000000
        63    1        0.000000000000       4.004959950000      12.015008000000
        64    1        1.416000000000       6.007500000000       0.000000000000
        65    1        1.416000000000       4.004959950000       2.002880000000
        66    1        1.416000000000       6.007500000000       4.005120000000
        67    1        1.416000000000       4.004959950000       6.008000000000
        68    1        1.416000000000       6.007500000000       8.009920000000
        69    1        1.416000000000       4.004959950000      10.011808000000
        70    1        1.416000000000       6.007500000000      12.015008000000
        71    1        2.832000000000       4.004959950000       0.000000000000
        72    1        2.832000000000       6.007500000000       2.002880000000
        73    1        2.832000000000       4.004959950000       4.005120000000
        74    1        2.832000000000       6.007500000000       6.008000000000
        75    1        2.832000000000       4.004959950000       8.009920000000
        76    1        2.832000000000       6.007500000000      10.011808000000
        77    1        2.832000000000       4.004959950000      12.015008000000
        78    1        4.248000000000       6.007500000000       0.000000000000
        79    1        4.248000000000       4.004959950000       2.002880000000
        80    1        4.248000000000       6.007500000000       4.005120000000
        81    1        4.248000000000       4.004959950000       6.008000000000
        82    1        4.248000000000       6.007500000000       8.009920000000
        83    1        4.248000000000       4.004959950000      10.011808000000
        84    1        4.248000000000       6.007500000000      12.015008000000
        85    1        5.664000000000       4.004959950000       0.000000000000
        86    1        5.664000000000       6.007500000000       2.002880000000
        87    1        5.664000000000       4.004959950000       4.005120000000
        88    1        5.664000000000       6.007500000000       6.008000000000
        89    1        5.664000000000       4.004959950000       8.009920000000
        90    1        5.664000000000       6.007500000000      10.011808000000
        91    1        5.664000000000       4.004959950000      12.015008000000
        92    1        7.080000000000       6.007500000000       0.000000000000
        93    1        7.080000000000       4.004959950000       2.002880000000
        94    1        7.080000000000       6.007500000000       4.005120000000
        95    1        7.080000000000       4.004959950000       6.008000000000
        96    1        7.080000000000       6.007500000000       8.009920000000
        97    1        7.080000000000       4.004959950000      10.011808000000
        98    1        7.080000000000       6.007500000000      12.015008000000
        99    1        8.496000000000       4.004959950000       0.000000000000
       100    1        8.496000000000       6.007500000000       2.002880000000
       101    1        8.496000000000       4.004959950000       4.005120000000
       102    1        8.496000000000       6.007500000000       6.008000000000
       103    1        8.496000000000       4.004959950000       8.009920000000
       104    1        8.496000000000       6.007500000000      10.011808000000
       105    1        8.496000000000       4.004959950000      12.015008000000
       106    1        9.912000000000       6.007500000000       0.000000000000
       107    1        9.912000000000       4.004959950000       2.002880000000
       108    1        9.912000000000       6.007500000000       4.005120000000
       109    1        9.912000000000       4.004959950000       6.008000000000
       110    1        9.912000000000       6.007500000000       8.009920000000
       111    1        9.912000000000       4.004959950000      10.011808000000
       112    1        9.912000000000       6.007500000000      12.015008000000
       113    1       11.328000000000       8.010040050000       0.000000000000
       114    1        0.000000000000      10.012495995000       2.002880000000
       115    1       11.328000000000       8.010040050000       4.005120000000
       116    1        0.000000000000      10.012495995000       6.008000000000
       117    1       11.328000000000       8.010040050000       8.009920000000
       118    1        0.000000000000      10.012495995000      10.011808000000
       119    1        0.000000000000       8.010040050000      12.015008000000
       120    1        1.416000000000      10.012495995000       0.000000000000
       121    1        1.416000000000       8.010040050000       2.002880000000
       122    1        1.416000000000      10.012495995000       4.005120000000
       123    1        1.416000000000       8.010040050000       6.008000000000
       124    1        1.416000000000      10.012495995000       8.009920000000
       125    1        1.416000000000       8.010040050000      10.011808000000
       126    1        1.416000000000      10.012495995000      12.015008000000
       127    1        2.832000000000       8.010040050000       0.000000000000
       128    1        2.832000000000      10.012495995000       2.002880000000
       129    1        2.832000000000       8.010040050000       4.005120000000
       130    1        2.832000000000      10.012495995000       6.008000000000
       131    1        2.832000000000       8.010040050000       8.009920000000
       132    1        2.832000000000      10.012495995000      10.011808000000
       133    1        2.832000000000       8.010040050000      12.015008000000
       134    1        4.248000000000      10.012495995000       0.000000000000
       135    1        4.248000000000       8.010040050000       2.002880000000
       136    1        4.248000000000      10.012495995000       4.005120000000
       137    1        4.248000000000       8.010040050000       6.008000000000
       138    1        4.248000000000      10.012495995000       8.009920000000
       139    1        4.248000000000       8.010040050000      10.011808000000
       140    1        4.248000000000      10.012495995000      12.015008000000
       141    1        5.664000000000       8.010040050000       0.000000000000
       142    1        5.664000000000      10.012495995000       2.002880000000
       143    1        5.664000000000       8.010040050000       4.005120000000
       144    1        5.664000000000      10.012495995000       6.008000000000
       145    1        5.664000000000       8.010040050000       8.009920000000
       146    1        5.664000000000      10.012495995000      10.011808000000
       147    1        5.664000000000       8.010040050000      12.015008000000
       148    1        7.080000000000      10.012495995000       0.000000000000
       149    1        7.080000000000       8.010040050000       2.002880000000
       150    1        7.080000000000      10.012495995000       4.005120000000
       151    1        7.080000000000       8.010040050000       6.008000000000
       152    1        7.080000000000      10.012495995000       8.009920000000
       153    1        7.080000000000       8.010040050000      10.011808000000
       154    1        7.080000000000      10.012495995000      12.015008000000
       155    1        8.496000000000       8.010040050000       0.000000000000
       156    1        8.496000000000      10.012495995000       2.002880000000
       157    1        8.496000000000       8.010040050000       4.005120000000
       158    1        8.496000000000      10.012495995000       6.008000000000
       159    1        8.496000000000       8.010040050000       8.009920000000
       160    1        8.496000000000      10.012495995000      10.011808000000
       161    1        8.496000000000       8.010040050000      12.015008000000
       162    1        9.912000000000      10.012495995000       0.000000000000
       163    1        9.912000000000       8.010040050000       2.002880000000
       164    1        9.912000000000      10.012495995000       4.005120000000
       165    1        9.912000000000       8.010040050000       6.008000000000
       166    1        9.912000000000      10.012495995000       8.009920000000
       167    1        9.912000000000       8.010040050000      10.011808000000
       168    1        9.912000000000      10.012495995000      12.015008000000
       169    2        0.791623296000       5.251444110000      14.794112000000
       170    2        6.145247424000       7.100804925000      15.332288000000
       171    2       10.165305408000       5.735744730000      17.382208000000
       172    2        0.133398528000      10.936701810000      15.282208000000
       173    2        2.802864384000       9.570764520000      23.423200000000
       174    2        5.750353344000       4.129543485000      14.731488000000
       175    2        8.112943680000       9.404296695000      22.729504000000
       176    2        4.981352064000      10.439605215000      14.964800000000
       177    2        5.867428224000       1.315942875000      17.708416000000
       178    2        0.880400832000       4.334951925000      18.062912000000
       179    2        5.109766272000      10.655694990000      17.640288000000
       180    2        9.046404864000       8.732309760000      16.493696000000
       181    2        9.492161664000       7.233510600000      19.420000000000
       182    2        7.965906240000       5.114581245000      13.704384000000
       183    2        5.992115520000       7.104481515000      19.762688000000
       184    2        3.181106304000       9.101194290000      18.862304000000
       185    2       10.715596992000       2.904830505000      15.063712000000
       186    2        6.194705472000       2.988719235000      23.341312000000
       187    2       10.411394880000       5.593342950000      23.746400000000
       188    2        3.207013440000       4.758264405000      16.843008000000
       189    2        1.771903104000      10.238005530000      20.931808000000
       190    2       10.651299264000       5.373300240000      20.891392000000
       191    2        1.812808512000       7.756295265000      15.037696000000
       192    2        3.089621376000       2.580497595000      14.979392000000
       193    2        8.063825472000       1.989960345000      15.150208000000
       194    2        9.404890752000       6.876124425000      14.871296000000
       195    2        7.263774144000      11.832299910000      24.338688000000
       196    2        4.193149824000       0.035900820000      23.741696000000
       197    2        7.737477120000       5.731191045000      24.449408000000
       198    2       11.308402560000       2.899495845000      24.856704000000
       199    2       11.129295552000       9.282981240000      19.355296000000
       200    2        0.396559296000       1.979074755000      19.061888000000
       201    2        8.406758016000      10.346104485000      20.362304000000
       202    2        4.461204288000       4.882920030000      23.140192000000
       203    2        7.500348096000       0.966534660000      20.226496000000
       204    2        7.113632832000       9.192820680000      18.323200000000
       205    2        2.613211008000       2.632822920000      23.603200000000
       206    2        1.749575616000       6.505846155000      19.543104000000
       207    2        5.411464896000       1.172291535000      14.898592000000
       208    2        4.252565184000       8.441318475000      13.417696000000
       209    2        3.641294976000       5.672389635000      13.988704000000
       210    2        4.023490368000       7.144635645000      16.433600000000
       211    2        8.764575552000      11.348996535000      15.257312000000
       212    2        2.030068224000       0.768972015000      20.777088000000
       213    2        4.849392192000       1.567224585000      20.879584000000
       214    2       10.488901056000       8.284342500000      23.867584000000
       215    2        7.412204928000       5.505585390000      17.033696000000
       216    2        0.991517184000       1.417001040000      16.304416000000
       217    2        7.175064576000       9.338322330000      14.084992000000
       218    2        6.600247872000       4.276354770000      19.208096000000
       219    2        3.968866752000       2.844371025000      18.588288000000
       220    2        6.265165632000       4.004275095000      25.879392000000
       221    2        1.236541824000       9.441735435000      17.185312000000
       222    2        9.642053760000       2.550544200000      20.770496000000
       223    2        3.890046528000       5.349534570000      20.480096000000
       224    2        9.773492544000       1.028255715000      23.387808000000
       225    3        0.080530752000       5.481255015000      14.191008000000
       226    3        6.199644480000       6.672818610000      14.424992000000
       227    3        1.659155520000       1.298497095000      20.038016000000
       228    3        2.956494720000       0.526785660000      20.485888000000
       229    3        5.704678848000       3.428876745000      13.994304000000
       230    3        5.820711552000       3.662208045000      15.601088000000
       231    3        8.918794944000       9.079807590000      23.185408000000
       232    3        7.341314304000       8.788455855000      22.833088000000
       233    3        5.128457472000      10.506096225000      16.029408000000
       234    3        4.895735040000      11.380896360000      14.722304000000
       235    3        6.103333824000       1.446221520000      16.775200000000
       236    3        6.666573312000       1.314801450000      18.220512000000
       237    3        1.657388352000       4.600134990000      17.470592000000
       238    3        0.154683840000       4.777344225000      17.575104000000
       239    3        5.226161472000      11.623298985000      17.716192000000
       240    3        5.936778240000      10.196998335000      17.954688000000
       241    3        8.387896896000       8.810239050000      17.207008000000
       242    3        9.314402688000       9.657464760000      16.271008000000
       243    3       10.260098112000       7.849087110000      19.511104000000
       244    3        9.729902400000       6.418809495000      19.893408000000
       245    3        8.557137216000       5.734567260000      14.254400000000
       246    3        7.202353728000       4.831459785000      14.243200000000
       247    3        6.349242048000       6.179915250000      19.586688000000
       248    3        5.917362048000       7.278374610000      20.752512000000
       249    3        2.494029120000       9.489843495000      18.186208000000
       250    3        3.927100416000       9.632341395000      18.419296000000
       251    3       11.127097920000       3.735499545000      15.130592000000
       252    3       10.777504512000       2.411915130000      14.137984000000
       253    3        5.690212992000       3.840606765000      23.173312000000
       254    3        7.123726080000       3.341683890000      23.425216000000
       255    3       10.925300928000       4.846322340000      24.107808000000
       256    3        9.484957056000       5.528654190000      24.026400000000
       257    3        3.564060672000       4.057946100000      17.533408000000
       258    3        3.128601024000       4.215138345000      15.975904000000
       259    3        2.503397376000       9.990760860000      20.300192000000
       260    3        1.647431040000      11.295601875000      21.017792000000
       261    3        1.681109184000       7.958675925000      14.095392000000
       262    3        1.288548672000       6.898820760000      15.057312000000
       263    3        2.381451456000       2.073368475000      15.452992000000
       264    3        2.963959872000       2.562775470000      14.034208000000
       265    3        8.027519232000       2.370667635000      14.192704000000
       266    3        8.994987072000       2.236460085000      15.418912000000
       267    3        9.038044800000       7.722040500000      15.433696000000
       268    3        9.645270912000       7.232513355000      13.938688000000
       269    3        6.264225408000      11.854767960000      24.190688000000
       270    3        7.526141952000      11.034600030000      23.778688000000
       271    3        3.613042944000      11.305598355000      23.537600000000
       272    3        3.580554240000       0.820804725000      23.666304000000
       273    3        7.138509120000       6.264248535000      23.950592000000
       274    3        7.160020992000       5.136496605000      25.030400000000
       275    3       10.866304704000       2.160333045000      24.340384000000
       276    3        0.889100736000       2.819572065000      24.553504000000
       277    3        0.335410752000       9.635513355000      20.075392000000
       278    3        0.405542400000       9.249026850000      18.506912000000
       279    3        0.543993216000       1.606850055000      18.079488000000
       280    3        0.325804608000       2.956194630000      18.912288000000
       281    3        8.267332992000       9.899302680000      21.298400000000
       282    3        9.344195328000      10.197394830000      20.121888000000
       283    3        4.253244864000       5.013487035000      22.190784000000
       284    3        4.780268736000       5.803545375000      23.448704000000
       285    3        7.742597376000       0.008602740000      20.386304000000
       286    3        8.422832448000       1.408350240000      20.458912000000
       287    3        6.829198080000       8.351266050000      18.828992000000
       288    3        7.589080320000       9.732738735000      19.022400000000
       289    3        3.029152512000       3.529009755000      23.539008000000
       290    3        2.109375552000       2.472650955000      22.790592000000
       291    3        1.581207552000       5.843098755000      18.879808000000
       292    3        2.005758336000       7.345995030000      19.181600000000
       293    3        5.873454720000       1.238193810000      13.987104000000
       294    3        4.513426368000       1.630315350000      14.846112000000
       295    3        5.004959616000       7.130638170000      15.941888000000
       296    3        4.348853184000       4.968526905000      14.034688000000
       297    3        3.858520704000       6.149925810000      16.564608000000
       298    3        3.266621376000       7.413158880000      15.820896000000
       299    3        0.767064192000       0.495486585000      15.893792000000
       300    3        8.571444480000      10.757894580000      14.494208000000
       301    3        5.723868480000       1.150604460000      20.660608000000
       302    3        4.805768064000       1.602668835000      21.869600000000
       303    3       10.638997056000       7.331084415000      23.727296000000
       304    3        0.062304000000       8.594497710000      23.761184000000
       305    3        7.009120704000       4.969584225000      17.819008000000
       306    3        8.398363968000       5.410054125000      16.995808000000
       307    3        3.852822720000       2.766597930000      19.537312000000
       308    3        6.686929728000       3.459791340000      26.568416000000
       309    3        1.540925184000       8.714635695000      16.581312000000
       310    3        0.722284608000      10.119105090000      16.622304000000
       311    3        4.706704704000       2.217692655000      18.234592000000
       312    3        9.740392128000       3.513113910000      20.993696000000
       313    3       10.515000768000       2.228494140000      20.328704000000
       314    3        3.071337984000       5.810862510000      20.154912000000
       315    3        8.819414400000       0.890359560000      23.491008000000
       316    3        9.815066304000       1.336116060000      22.421600000000
       317    3        6.640496256000       6.536760750000      15.950784000000
       318    3       10.292994624000       6.129704565000      16.452512000000
       319    3        9.910674624000       6.516203085000      18.038592000000
       320    3        7.200360000000       3.657930705000      19.718304000000
       321    3        5.750274048000       3.774992850000      18.988096000000
       322    3        4.136883648000       6.547934700000      13.862112000000
       323    3        4.338827904000       9.177429465000      14.074304000000
       324    3        1.484625024000       4.874040945000      14.175104000000
       325    3        6.762464832000       8.594413605000      14.549696000000
       326    3        6.359901696000       9.929424285000      14.184608000000
       327    3        8.324403456000       0.241273215000      15.119712000000
       328    3        2.534594688000       9.612937170000      22.467808000000
       329    3        3.463569984000       8.819166195000      23.459296000000
       330    3        0.320967552000      10.636398900000      14.334784000000
       331    3       10.528503744000      11.300503995000      15.168096000000
       332    3        4.572173376000       5.977005930000      20.138304000000
       333    3        0.242600448000       5.371233660000      20.740192000000
       334    3       10.514898816000       5.448826530000      21.867488000000
       335    3        0.333122496000       1.993925295000      15.806688000000
       336    3        6.227307456000       3.306407850000      25.143488000000
       337    3        5.664000000000       6.007500000000      13.000000000000
       338    3        6.127236480000       6.589026000000      13.000000000000
       339    4        5.783000640000       7.656967260000      22.817408000000
