LAMMPS (2 Aug 2023)
OMP_NUM_THREADS environment is not set. Defaulting to 1 thread. (src/comm.cpp:98)
  using 1 OpenMP thread(s) per MPI task
Loaded 1 plugins from /work/home/baoergen22b/apprepo/deepmd/v2.2.9-dtk23.10/app/lib/deepmd_lmp
package gpu 4
# system
units        metal
dimension    3
atom_style   atomic
boundary     p p f

# 设置原子映射
atom_modify map array

# initial stucture
read_data POSCAR.lmp
Reading data file ...
  orthogonal box = (0 0 0) to (11.328 12.015 32)
  1 by 1 by 4 MPI processor grid
  reading atoms ...
  338 atoms
  read_data CPU = 0.033 seconds
mass      1 55.845
mass      2 15.999
mass      3 1.008
mass      4  35.450

# potential
pair_style deepmd graph-compress.pb
Summary of lammps deepmd module ...
  >>> Info of deepmd-kit:
  installed to:       /work/home/wys974137909/shangcheng/deepmd-kit/20240715/deepmd-kit_v2.2.9/install
  source:             v2.2.9
  source branch:      HEAD
  source commit:      be43748
  source commit at:   2024-02-04 13:44:12 +0800
  support model ver.: 1.1 
  build variant:      rocm
  build with tf inc:  /work/home/wys974137909/shangcheng/miniconda3/envs/deepmd-kit-v2.2.9/lib/python3.8/site-packages/tensorflow/include;/work/home/wys974137909/shangcheng/miniconda3/envs/deepmd-kit-v2.2.9/lib/python3.8/site-packages/tensorflow/include
  build with tf lib:  /work/home/wys974137909/shangcheng/miniconda3/envs/deepmd-kit-v2.2.9/lib/python3.8/site-packages/tensorflow/lib/libtensorflow_cc.so
  set tf intra_op_parallelism_threads: 0
  set tf inter_op_parallelism_threads: 0
  >>> Info of lammps module:
  use deepmd-kit at:  /work/home/wys974137909/shangcheng/deepmd-kit/20240715/deepmd-kit_v2.2.9/install
  source:             v2.2.9
  source branch:      HEAD
  source commit:      be43748
  source commit at:   2024-02-04 13:44:12 +0800
  build float prec:   double
  build with tf inc:  /work/home/wys974137909/shangcheng/miniconda3/envs/deepmd-kit-v2.2.9/lib/python3.8/site-packages/tensorflow/include;/work/home/wys974137909/shangcheng/miniconda3/envs/deepmd-kit-v2.2.9/lib/python3.8/site-packages/tensorflow/include
  build with tf lib:  /work/home/wys974137909/shangcheng/miniconda3/envs/deepmd-kit-v2.2.9/lib/python3.8/site-packages/tensorflow/lib/libtensorflow_cc.so
pair_coeff * *

# 固定原子受力、速度为 0
group fixed id 1:168
168 atoms in group fixed
group mobile subtract all fixed
170 atoms in group mobile
fix freeze_fixed fixed setforce 0.0 0.0 0.0
velocity fixed set 0 0 0

# 在z=27处添加硬性反射墙
fix wall1 mobile wall/reflect zhi 26

# 计算mobile组的温度
compute mTemp mobile temp
thermo 50
thermo_style custom step temp c_mTemp pe ke etotal press
velocity mobile  create 298.15 12345 mom yes rot yes

#fix ensemble mobile  nvt temp 298.15 298.15 1
#timestep 0.0005
#run 15000
#unfix ensemble        # 结束预平衡的NVT

fix ensemble mobile  nvt temp 298.15 298.15 1
fix meta  all colvars pmf.in tstat ensemble
timestep 0.0005
dump trace all custom 10 md.lammpstrj id type x y z
run 200000

CITE-CITE-CITE-CITE-CITE-CITE-CITE-CITE-CITE-CITE-CITE-CITE-CITE

Your simulation uses code contributions which should be cited:

- GPU package (short-range, long-range and three-body potentials): doi:10.1016/j.cpc.2010.12.021, doi:10.1016/j.cpc.2011.10.012, doi:10.1016/j.cpc.2013.08.002, doi:10.1016/j.commatsci.2014.10.068, doi:10.1016/j.cpc.2016.10.020, doi:10.3233/APC200086

@Article{Brown11,
 author = {W. M. Brown and P. Wang and S. J. Plimpton and A. N. Tharrington},
 title = {Implementing Molecular Dynamics on Hybrid High Performance Computers---Short Range Forces},
 journal = {Comput.\ Phys.\ Commun.},
 year =    2011,
 volume =  182,
 pages =   {898--911},
 doi =     {10.1016/j.cpc.2010.12.021}
}

@Article{Brown12,
 author = {W. M. Brown and A. Kohlmeyer and S. J. Plimpton and A. N. Tharrington},
 title = {Implementing Molecular Dynamics on Hybrid High Performance Computers - Particle-Particle Particle-Mesh},
 journal = {Comput.\ Phys.\ Commun.},
 year =    2012,
 volume =  183,
 doi =     {10.1016/j.cpc.2011.10.012},
 pages =   {449--459}
}

@Article{Brown13,
 author = {W. M. Brown and Y. Masako},
 title = {Implementing Molecular Dynamics on Hybrid High Performance Computers---Three-Body Potentials},
 journal = {Comput.\ Phys.\ Commun.},
 year =    2013,
 volume =  184,
 pages =   {2785--2793},
 doi =     {10.1016/j.cpc.2013.08.002},
}

@Article{Trung15,
 author = {T. D. Nguyen and S. J. Plimpton},
 title = {Accelerating Dissipative Particle Dynamics Simulations for Soft Matter Systems},
 journal = {Comput.\ Mater.\ Sci.},
 year =    2015,
 doi =     {10.1016/j.commatsci.2014.10.068},
 volume =  100,
 pages =   {173--180}
}

@Article{Trung17,
 author = {T. D. Nguyen},
 title = {{GPU}-Accelerated {T}ersoff Potentials for Massively Parallel
    Molecular Dynamics Simulations},
 journal = {Comput.\ Phys.\ Commun.},
 year =    2017,
 doi =     {10.1016/j.cpc.2016.10.020},
 volume =  212,
 pages =   {113--122}
}

@inproceedings{Nikolskiy19,
 author = {V. Nikolskiy and V. Stegailov},
 title = {{GPU} Acceleration of Four-Site Water Models in {LAMMPS}},
 booktitle = {Proceedings of the International Conference on Parallel
    Computing (ParCo 2019), Prague, Czech Republic},
 doi =     {10.3233/APC200086},
 year =    2019
}

- USER-DEEPMD package:

@article{Wang_ComputPhysCommun_2018_v228_p178,
  author = {Wang, Han and Zhang, Linfeng and Han, Jiequn and E, Weinan},
  doi = {10.1016/j.cpc.2018.03.016},
  url = {https://doi.org/10.1016/j.cpc.2018.03.016},
  year = 2018,
  month = {jul},
  publisher = {Elsevier {BV}},
  volume = 228,
  journal = {Comput. Phys. Commun.},
  title = {{DeePMD-kit: A deep learning package for many-body potential energy representation and molecular dynamics}},
  pages = {178--184}
}
@misc{Zeng_JChemPhys_2023_v159_p054801,
  title  = {{DeePMD-kit v2: A software package for deep potential models}},
  author =   {Jinzhe Zeng and Duo Zhang and Denghui Lu and Pinghui Mo and Zeyu Li
         and Yixiao Chen and Mari{\'a}n Rynik and Li'ang Huang and Ziyao Li and 
         Shaochen Shi and Yingze Wang and Haotian Ye and Ping Tuo and Jiabin
         Yang and Ye Ding and Yifan Li and Davide Tisi and Qiyu Zeng and Han 
         Bao and Yu Xia and Jiameng Huang and Koki Muraoka and Yibo Wang and 
         Junhan Chang and Fengbo Yuan and Sigbj{\o}rn L{\o}land Bore and Chun
         Cai and Yinnian Lin and Bo Wang and Jiayan Xu and Jia-Xin Zhu and 
         Chenxing Luo and Yuzhi Zhang and Rhys E A Goodall and Wenshuo Liang
         and Anurag Kumar Singh and Sikai Yao and Jingchao Zhang and Renata
         Wentzcovitch and Jiequn Han and Jie Liu and Weile Jia and Darrin M
         York and Weinan E and Roberto Car and Linfeng Zhang and Han Wang},
  journal =  {J. Chem. Phys.},
  volume =   159,
  issue =    5,  
  year =    2023,
  pages  =   054801,
  doi =      {10.1063/5.0155600},
}

CITE-CITE-CITE-CITE-CITE-CITE-CITE-CITE-CITE-CITE-CITE-CITE-CITE

Generated 0 of 6 mixed pair_coeff terms from geometric mixing rule
Neighbor list info ...
  update: every = 1 steps, delay = 0 steps, check = yes
  max neighbors/atom: 2000, page size: 100000
  master list distance cutoff = 8
  ghost atom cutoff = 8
  binsize = 4, bins = 3 4 8
  1 neighbor lists, perpetual/occasional/extra = 1 0 0
  (1) pair deepmd, perpetual
      attributes: full, newton on
      pair build: full/bin/atomonly
      stencil: full/bin/3d
      bin: standard
colvars: Creating proxy instance
colvars: ----------------------------------------------------------------------
colvars: Initializing the collective variables module, version 2023-05-01.
colvars: Please cite Fiorin et al, Mol Phys 2013:
colvars:   https://doi.org/10.1080/00268976.2013.813594
colvars: as well as all other papers listed below for individual features used.
colvars: This version was built with the C++11 standard or higher.
colvars: Using LAMMPS interface, version "2023-04-12".
colvars: ----------------------------------------------------------------------
colvars: Reading new configuration from file "pmf.in":
colvars: # units = "" [default]
colvars: # smp = on [default]
colvars: # colvarsTrajFrequency = 100 [default]
colvars: # colvarsRestartFrequency = 0 [default]
colvars: # scriptedColvarForces = off [default]
colvars: # scriptingAfterBiases = off [default]
colvars: ----------------------------------------------------------------------
colvars:   Initializing a new collective variable.
colvars:   # name = "cn_H_Fe"
colvars:   Initializing a new "coordNum" component.
colvars:     # name = "" [default]
colvars:     # componentCoeff = 1 [default]
colvars:     # componentExp = 1 [default]
colvars:     # period = 0 [default]
colvars:     # wrapAround = 0 [default]
colvars:     # forceNoPBC = off [default]
colvars:     # scalable = on [default]
colvars:       Initializing atom group "group1".
colvars:       # name = "" [default]
colvars:       # centerToOrigin = off [default]
colvars:       # centerToReference = off [default]
colvars:       # rotateToReference = off [default]
colvars:       # atomsOfGroup = "" [default]
colvars:       # indexGroup = "" [default]
colvars:       # psfSegID =  [default]
colvars:       # atomsFile = "" [default]
colvars:       # dummyAtom = ( 0 , 0 , 0 ) [default]
colvars:       # enableFitGradients = on [default]
colvars:       # printAtomIDs = off [default]
colvars:       Atom group "group1" defined with 1 atoms requested.
colvars:       Initializing atom group "group2".
colvars:       # name = "" [default]
colvars:       # centerToOrigin = off [default]
colvars:       # centerToReference = off [default]
colvars:       # rotateToReference = off [default]
colvars:       # atomsOfGroup = "" [default]
colvars:       # indexGroup = "" [default]
colvars:       # psfSegID =  [default]
colvars:       # atomsFile = "" [default]
colvars:       # dummyAtom = ( 0 , 0 , 0 ) [default]
colvars:       # enableFitGradients = on [default]
colvars:       # printAtomIDs = off [default]
colvars:       Atom group "group2" defined with 168 atoms requested.
colvars:     # cutoff = 2.5
colvars:     # cutoff3 = ( 4 , 4 , 4 ) [default]
colvars:     # expNumer = 6 [default]
colvars:     # expDenom = 12 [default]
colvars:     # group2CenterOnly = off [default]
colvars:     # tolerance = 0 [default]
colvars:   All components initialized.
colvars:   # timeStepFactor = 1 [default]
colvars:   # width = 0.1
colvars:   # lowerBoundary = 0
colvars:   # upperBoundary = 6
colvars:   # hardLowerBoundary = on
colvars:   # hardUpperBoundary = off [default]
colvars:   # expandBoundaries = off [default]
colvars:   # extendedLagrangian = off [default]
colvars:   # outputValue = on [default]
colvars:   # outputVelocity = off [default]
colvars:   # outputTotalForce = off [default]
colvars:   # outputAppliedForce = off [default]
colvars:   # subtractAppliedForce = off [default]
colvars:   # runAve = off [default]
colvars:   # corrFunc = off [default]
colvars: ----------------------------------------------------------------------
colvars:   Initializing a new collective variable.
colvars:   # name = "cn_H_O"
colvars:   Initializing a new "coordNum" component.
colvars:     # name = "" [default]
colvars:     # componentCoeff = 1 [default]
colvars:     # componentExp = 1 [default]
colvars:     # period = 0 [default]
colvars:     # wrapAround = 0 [default]
colvars:     # forceNoPBC = off [default]
colvars:     # scalable = on [default]
colvars:       Initializing atom group "group1".
colvars:       # name = "" [default]
colvars:       # centerToOrigin = off [default]
colvars:       # centerToReference = off [default]
colvars:       # rotateToReference = off [default]
colvars:       # atomsOfGroup = "" [default]
colvars:       # indexGroup = "" [default]
colvars:       # psfSegID =  [default]
colvars:       # atomsFile = "" [default]
colvars:       # dummyAtom = ( 0 , 0 , 0 ) [default]
colvars:       # enableFitGradients = on [default]
colvars:       # printAtomIDs = off [default]
colvars:       Atom group "group1" defined with 1 atoms requested.
colvars:       Initializing atom group "group2".
colvars:       # name = "" [default]
colvars:       # centerToOrigin = off [default]
colvars:       # centerToReference = off [default]
colvars:       # rotateToReference = off [default]
colvars:       # atomsOfGroup = "" [default]
colvars:       # indexGroup = "" [default]
colvars:       # psfSegID =  [default]
colvars:       # atomsFile = "" [default]
colvars:       # dummyAtom = ( 0 , 0 , 0 ) [default]
colvars:       # enableFitGradients = on [default]
colvars:       # printAtomIDs = off [default]
colvars:       Atom group "group2" defined with 56 atoms requested.
colvars:     # cutoff = 2.5
colvars:     # cutoff3 = ( 4 , 4 , 4 ) [default]
colvars:     # expNumer = 6 [default]
colvars:     # expDenom = 12 [default]
colvars:     # group2CenterOnly = off [default]
colvars:     # tolerance = 0 [default]
colvars:   All components initialized.
colvars:   # timeStepFactor = 1 [default]
colvars:   # width = 0.1
colvars:   # lowerBoundary = 3.5
colvars:   # upperBoundary = 10
colvars:   # hardLowerBoundary = off [default]
colvars:   # hardUpperBoundary = off [default]
colvars:   # expandBoundaries = off [default]
colvars:   # extendedLagrangian = off [default]
colvars:   # outputValue = on [default]
colvars:   # outputVelocity = off [default]
colvars:   # outputTotalForce = off [default]
colvars:   # outputAppliedForce = off [default]
colvars:   # subtractAppliedForce = off [default]
colvars:   # runAve = off [default]
colvars:   # corrFunc = off [default]
colvars: ----------------------------------------------------------------------
colvars: Collective variables initialized, 2 in total.
colvars: ----------------------------------------------------------------------
colvars:   Initializing a new "metadynamics" instance.
colvars:   # name = "meta2d"
colvars:   # colvars = { cn_H_Fe, cn_H_O }
colvars:   # stepZeroData = off [default]
colvars:   # outputEnergy = off [default]
colvars:   # outputFreq = 0 [default]
colvars:   # timeStepFactor = 1 [default]
colvars:   # writeTISamples = off [default]
colvars:   # writeTIPMF = off [default]
colvars:   # hillWeight = 0.1
colvars:   # newHillFrequency = 300
colvars:   # gaussianSigmas =  [default]
colvars:   # hillWidth = 1
colvars:   Half-widths of the Gaussian hills (sigma's):
colvars:   cn_H_Fe: 0.05
colvars:   cn_H_O: 0.05
colvars:   # multipleReplicas = off [default]
colvars:   # useGrids = on [default]
colvars:   # gridsUpdateFrequency = 300 [default]
colvars:   # rebinGrids = off [default]
colvars:   # writeFreeEnergyFile = on [default]
colvars:   # keepHills = off [default]
colvars:   # keepFreeEnergyFiles = off [default]
colvars:   # writeHillsTrajectory = off [default]
colvars:   # wellTempered = off [default]
colvars:   # biasTemperature = 800
colvars:   # ebMeta = off [default]
colvars: ----------------------------------------------------------------------
colvars: Collective variables biases initialized, 1 in total.
colvars: ----------------------------------------------------------------------
colvars: Collective variables module (re)initialized.
colvars: ----------------------------------------------------------------------
colvars: Re-initialized atom group for variable "cn_H_Fe":0/0. 1 atoms: total mass = 1.008, total charge = 3.95253e-323.
colvars: Re-initialized atom group for variable "cn_H_Fe":0/1. 168 atoms: total mass = 9381.96, total charge = 2.48341e-308.
colvars: Re-initialized atom group for variable "cn_H_O":0/0. 1 atoms: total mass = 1.008, total charge = 3.95253e-323.
colvars: Re-initialized atom group for variable "cn_H_O":0/1. 56 atoms: total mass = 895.944, total charge = 3.48205e+253.
colvars: The restart output state file will be "rest.colvars.state".
colvars: The final output state file will be "out.colvars.state".
Per MPI rank memory allocation (min/avg/max) = 3.138 | 3.162 | 3.178 Mbytes
   Step          Temp         c_mTemp         PotEng         KinEng         TotEng         Press     
         0   149.51736      298.15        -2334.1106      6.5130762     -2327.5975     -13156.048    
        50   148.16948      295.46221     -2334.0518      6.4543615     -2327.5974     -12773.156    
       100   153.86127      306.81211     -2334.3055      6.7022997     -2327.6032     -9386.3877    
       150   155.99435      311.06565     -2334.3924      6.7952181     -2327.5971     -9948.5585    
       200   186.30285      371.50332     -2335.7158      8.1154769     -2327.6003     -15633.498    
       250   166.67359      332.36095     -2334.8599      7.2604131     -2327.5994     -9907.2702    
       300   175.52273      350.00686     -2335.2531      7.6458874     -2327.6072     -11253.187    
       350   164.71964      328.4646      -2334.7014      7.1752975     -2327.5261     -10003.406    
       400   166.52009      332.05485     -2334.7632      7.2537263     -2327.5095     -11745.318    
       450   153.55648      306.20435     -2334.2109      6.6890232     -2327.5218     -11007.324    
       500   160.03507      319.12319     -2334.5031      6.9712348     -2327.5318     -9622.8795    
       550   163.62162      326.27506     -2334.6875      7.127467      -2327.56       -8891.594     
       600   165.44629      329.91361     -2334.7525      7.2069512     -2327.5455     -11844.035    
       650   175.98725      350.93316     -2335.1232      7.6661224     -2327.457      -11779.544    
       700   187.97259      374.83291     -2335.6569      8.1882116     -2327.4687     -7796.1185    
       750   177.69175      354.33207     -2335.219       7.7403715     -2327.4787     -8564.4557    
       800   158.99922      317.05763     -2334.4353      6.9261126     -2327.5091     -9534.4272    
       850   160.94047      320.92863     -2334.5213      7.0106746     -2327.5107     -8776.9241    
       900   150.41729      299.94454     -2334.0683      6.5522779     -2327.516      -9344.2152    
       950   162.72413      324.4854      -2334.5246      7.088372      -2327.4362     -9113.6542    
      1000   141.43267      282.02846     -2333.6039      6.1609017     -2327.443      -10987.716    
      1050   152.60813      304.31325     -2334.1118      6.6477121     -2327.4641     -10536.505    
      1100   158.75505      316.57072     -2334.4026      6.915476      -2327.4872     -7094.6993    
      1150   166.66478      332.34337     -2334.763       7.2600291     -2327.503      -12530.987    
      1200   171.78663      342.55677     -2335.009       7.4831404     -2327.5259     -9042.784     
      1250   161.12924      321.30506     -2334.4658      7.0188977     -2327.4469     -12343.062    
      1300   160.90448      320.85686     -2334.4834      7.0091068     -2327.4743     -9898.3779    
      1350   144.9999       289.14181     -2333.8097      6.3162925     -2327.4934     -10250.7      
      1400   164.59884      328.22372     -2334.6897      7.1700354     -2327.5197     -9051.1716    
      1450   168.92652      336.85348     -2334.9055      7.3585522     -2327.5469     -12453.347    
      1500   165.35089      329.72337     -2334.7708      7.2027953     -2327.568      -9651.3139    
      1550   171.05487      341.09759     -2334.9497      7.4512648     -2327.4984     -9437.0085    
      1600   167.23968      333.48977     -2334.8062      7.2850722     -2327.5211     -10524.597    
      1650   177.39697      353.74425     -2335.2864      7.7275306     -2327.5589     -10173.309    
      1700   157.38323      313.8352      -2334.4304      6.8557189     -2327.5747     -11799.698    
      1750   159.83101      318.71628     -2334.5785      6.9623458     -2327.6162     -11516.173    
      1800   150.3727       299.85563     -2334.1897      6.5503356     -2327.6394     -10299.699    
      1850   159.58052      318.21677     -2334.5452      6.9514341     -2327.5938     -10093.345    
      1900   161.5159       322.07609     -2334.6383      7.0357408     -2327.6025     -11610.766    
      1950   150.65019      300.40896     -2334.1875      6.562423      -2327.6251     -11126.033    
      2000   145.00908      289.16011     -2333.9635      6.3166924     -2327.6468     -12431.915    
      2050   144.91933      288.98114     -2334.0043      6.3127828     -2327.6915     -11627.69     
      2100   152.60343      304.30388     -2334.3652      6.6475075     -2327.7176     -13482.742    
      2150   159.64019      318.33576     -2334.6058      6.9540334     -2327.6518     -10698.897    
      2200   161.69599      322.43521     -2334.7261      7.0435856     -2327.6825     -11064.932    
      2250   165.93328      330.88471     -2334.9744      7.2281647     -2327.7462     -11882.535    
      2300   167.35171      333.71318     -2335.0338      7.2899525     -2327.7438     -13664.349    
      2350   157.01073      313.09241     -2334.6377      6.8394926     -2327.7982     -13513.17     
      2400   158.46531      315.99295     -2334.7189      6.9028549     -2327.816      -10734.264    
      2450   163.07016      325.17541     -2334.86        7.1034454     -2327.7566     -11632.674    
      2500   157.52694      314.12177     -2334.6218      6.861979      -2327.7598     -9879.8715    
      2550   168.23958      335.48367     -2335.1298      7.3286288     -2327.8012     -12941.962    
      2600   164.15551      327.33969     -2334.975       7.150724      -2327.8243     -10602.996    
      2650   158.47679      316.01585     -2334.7487      6.9033551     -2327.8454     -10951.611    
      2700   157.2953       313.65987     -2334.7304      6.8518887     -2327.8786     -8880.3022    
      2750   174.13312      347.23586     -2335.3903      7.5853551     -2327.805      -13604.167    
      2800   169.35241      337.70274     -2335.2052      7.3771043     -2327.8281     -9485.712     
      2850   155.50671      310.09326     -2334.6594      6.7739763     -2327.8854     -12890.676    
      2900   159.75217      318.55905     -2334.8426      6.9589112     -2327.8837     -13774.075    
      2950   153.14467      305.38316     -2334.5858      6.6710843     -2327.9147     -11207.638    
      3000   164.21152      327.45138     -2335.0916      7.1531637     -2327.9384     -10611.951    
      3050   162.40029      323.83962     -2334.9325      7.0742651     -2327.8583     -12026.038    
      3100   170.6449       340.28006     -2335.3161      7.4334059     -2327.8827     -12781.468    
      3150   160.6214       320.29238     -2334.9021      6.9967757     -2327.9053     -10385.22     
      3200   160.80103      320.65057     -2335.014       7.0046003     -2328.0094     -14104.438    
      3250   166.86744      332.74749     -2335.2219      7.2688572     -2327.9531     -11868.662    
      3300   157.12585      313.32196     -2334.8205      6.8445071     -2327.976      -11254.546    
      3350   152.84904      304.79364     -2334.5552      6.6582062     -2327.897      -12446.969    
      3400   156.55217      312.178       -2334.7362      6.8195173     -2327.9166     -13727.887    
      3450   169.42694      337.85136     -2335.3583      7.380351      -2327.978      -10164.543    
      3500   165.12511      329.27315     -2335.1506      7.1929602     -2327.9576     -12204.652    
      3550   164.79508      328.61505     -2335.1619      7.178584      -2327.9834     -13595.46     
      3600   161.73417      322.51132     -2335.1063      7.0452484     -2328.061      -12374.551    
      3650   167.82904      334.665       -2335.2222      7.3107451     -2327.9115     -11635.45     
      3700   167.62523      334.2586      -2335.3059      7.3018672     -2328.004      -12387.483    
      3750   174.09923      347.16829     -2335.5265      7.583879      -2327.9427     -10327.447    
      3800   166.09766      331.21249     -2335.2735      7.235325      -2328.0382     -10933.744    
      3850   140.855        280.87655     -2334.1058      6.1357382     -2327.97       -11389.957    
      3900   164.91445      328.85307     -2335.1811      7.1837837     -2327.9973     -11600.281    
      3950   160.27808      319.60777     -2334.9127      6.9818204     -2327.9308     -11389.476    
      4000   150.70427      300.51679     -2334.4874      6.5647787     -2327.9226     -11989.506    
      4050   156.73598      312.54453     -2334.7679      6.8275242     -2327.9403     -11308.49     
      4100   161.80324      322.64907     -2335.0003      7.0482575     -2327.9521     -14085.023    
      4150   160.67971      320.40866     -2334.971       6.9993158     -2327.9716     -12211.316    
      4200   141.64447      282.4508      -2334.1486      6.1701278     -2327.9784     -13446.736    
      4250   172.32693      343.63417     -2335.4772      7.5066763     -2327.9706     -12510.422    
      4300   165.30353      329.62893     -2335.122       7.2007323     -2327.9213     -10866.825    
      4350   174.16087      347.2912      -2335.5221      7.5865639     -2327.9355     -11373.084    
      4400   167.7421       334.49165     -2335.314       7.3069582     -2328.007      -13798.627    
      4450   159.65919      318.37366     -2334.9325      6.9548612     -2327.9777     -9914.661     
      4500   165.86233      330.74323     -2335.2219      7.225074      -2327.9968     -11709.178    
      4550   171.60778      342.20013     -2335.395       7.4753497     -2327.9196     -11725.023    
      4600   159.89227      318.83844     -2334.9105      6.9650144     -2327.9455     -11057.523    
      4650   158.77962      316.61972     -2334.9769      6.9165465     -2328.0603     -11882.518    
      4700   167.59157      334.19147     -2335.2839      7.3004008     -2327.9835     -13013.222    
      4750   166.66308      332.33998     -2335.2539      7.2599551     -2327.994      -12087.458    
      4800   147.80922      294.74383     -2334.46        6.4386685     -2328.0213     -11501.022    
      4850   175.87519      350.7097      -2335.6126      7.661241      -2327.9514     -10984.724    
      4900   169.34274      337.68346     -2335.3293      7.3766832     -2327.9526     -11797.913    
      4950   171.31489      341.61607     -2335.4415      7.462591      -2327.9789     -12865.281    
      5000   164.07207      327.17331     -2335.1423      7.1470893     -2327.9953     -12667.781    
      5050   165.15556      329.33387     -2335.2401      7.1942866     -2328.0459     -13936.205    
      5100   158.34958      315.76217     -2334.9455      6.8978135     -2328.0477     -13067.806    
      5150   166.69805      332.40971     -2335.2276      7.2614783     -2327.9661     -10650.136    
      5200   170.25326      339.4991      -2335.4571      7.4163458     -2328.0408     -12188.061    
      5250   172.24233      343.46547     -2335.5174      7.502991      -2328.0144     -13486.496    
      5300   159.28651      317.63051     -2334.985       6.9386271     -2328.0464     -14156.756    
      5350   149.46394      298.04347     -2334.5734      6.510749      -2328.0627     -13193.781    
      5400   156.54325      312.16021     -2334.9008      6.8191287     -2328.0817     -14671.183    
      5450   165.13275      329.28838     -2335.2151      7.193293      -2328.0218     -10842.995    
      5500   179.45112      357.8404      -2335.8618      7.8170109     -2328.0448     -11566.234    
      5550   158.8336       316.72735     -2334.9859      6.9188977     -2328.067      -14149.11     
      5600   165.26502      329.55214     -2335.2878      7.1990547     -2328.0888     -9776.8181    
      5650   161.01348      321.07421     -2335.1301      7.0138547     -2328.1162     -12487.51     
      5700   174.88451      348.73419     -2335.7691      7.618086      -2328.151      -10722.877    
      5750   175.90725      350.77364     -2335.7508      7.6626376     -2328.0882     -13722.996    
      5800   156.5328       312.13937     -2334.9359      6.8186734     -2328.1172     -13371.412    
      5850   168.41579      335.83504     -2335.4773      7.3363046     -2328.141      -10927.376    
      5900   156.94314      312.95763     -2335.0022      6.8365483     -2328.1657     -13490.725    
      5950   174.81006      348.58575     -2335.8103      7.6148434     -2328.1955     -11963.168    
      6000   162.65492      324.34739     -2335.306       7.0853572     -2328.2206     -14483.453    
      6050   177.25246      353.45609     -2335.8839      7.7212356     -2328.1627     -11072.932    
      6100   160.04895      319.15087     -2335.1673      6.9718395     -2328.1955     -11924.376    
      6150   164.55497      328.13623     -2335.3926      7.1681244     -2328.2245     -11871.644    
      6200   176.85639      352.6663      -2335.9786      7.7039827     -2328.2746     -11567.735    
      6250   167.88014      334.7669      -2335.6404      7.312971      -2328.3275     -11519.998    
      6300   159.56384      318.18351     -2335.268       6.9507075     -2328.3173     -12232.731    
      6350   165.53215      330.08483     -2335.4599      7.2106914     -2328.2493     -10692.287    
      6400   173.95312      346.87693     -2335.8876      7.5775141     -2328.3101     -12326.894    
      6450   162.18889      323.41809     -2335.3754      7.0650567     -2328.3103     -10426.049    
      6500   156.81346      312.69903     -2335.1752      6.8308993     -2328.3443     -12658.716    
      6550   144.90211      288.94681     -2334.684       6.3120327     -2328.3719     -11854.953    
      6600   144.16531      287.47757     -2334.6702      6.2799373     -2328.3903     -10693.177    
      6650   164.27228      327.57253     -2335.5001      7.1558102     -2328.3443     -10757.266    
      6700   172.22873      343.43836     -2335.8982      7.5023988     -2328.3958     -12524.475    
      6750   159.49704      318.0503      -2335.3384      6.9477976     -2328.3906     -12176.446    
      6800   165.28497      329.59193     -2335.611       7.199924      -2328.4111     -11580.806    
      6850   156.18497      311.44577     -2335.2469      6.8035218     -2328.4433     -10567.42     
      6900   155.60444      310.28814     -2335.263       6.7782333     -2328.4847     -10682.087    
      6950   153.30502      305.70292     -2335.1367      6.6780694     -2328.4586     -11282.623    
      7000   165.95747      330.93295     -2335.657       7.2292186     -2328.4278     -13054.067    
      7050   155.64417      310.36737     -2335.2317      6.7799642     -2328.4517     -12301.169    
      7100   169.85452      338.70399     -2335.8767      7.3989766     -2328.4777     -14118.938    
      7150   169.25425      337.507       -2335.8813      7.3728284     -2328.5085     -12179.947    
      7200   162.25933      323.55854     -2335.6172      7.0681248     -2328.5491     -14710.761    
      7250   151.89266      302.88655     -2335.0783      6.6165458     -2328.4617     -11925.419    
      7300   151.20576      301.51681     -2335.1327      6.5866239     -2328.5461     -13032.264    
      7350   161.02693      321.10103     -2335.5546      7.0144406     -2328.5402     -12312.011    
      7400   158.71361      316.48809     -2335.5302      6.913671      -2328.6165     -13713.943    
      7450   161.58874      322.22133     -2335.6863      7.0389135     -2328.6474     -10216.243    
      7500   168.12153      335.24827     -2335.9144      7.3234865     -2328.5909     -8645.4628    
      7550   167.9978       335.00153     -2335.9343      7.3180966     -2328.6162     -15771.93     
      7600   174.52858      348.02445     -2336.1714      7.6025817     -2328.5688     -11337.451    
      7650   163.44809      325.92903     -2335.7688      7.1199081     -2328.6489     -11488.23     
      7700   169.2221       337.4429      -2335.983       7.3714281     -2328.6116     -11361.313    
      7750   151.57942      302.26191     -2335.2195      6.6029007     -2328.6166     -14489.171    
      7800   164.06754      327.16426     -2335.7969      7.1468916     -2328.65       -10545.457    
      7850   154.38676      307.85999     -2335.3327      6.7251905     -2328.6075     -12623.63     
      7900   162.56829      324.17465     -2335.7343      7.0815836     -2328.6527     -11711.146    
      7950   166.12903      331.27504     -2335.9186      7.2366916     -2328.6819     -14103.372    
      8000   157.03293      313.13667     -2335.6077      6.8404594     -2328.7673     -10933.441    
      8050   145.44968      290.03871     -2335.0521      6.3358854     -2328.7162     -14040.673    
      8100   163.51699      326.06642     -2335.8845      7.1229093     -2328.7615     -12590.164    
      8150   159.00403      317.06722     -2335.6381      6.9263221     -2328.7117     -12548.063    
      8200   159.03672      317.1324      -2335.6696      6.9277461     -2328.7419     -12327.079    
      8250   160.08132      319.21541     -2335.718       6.9732492     -2328.7448     -14350.838    
      8300   157.63388      314.33501     -2335.6089      6.8666372     -2328.7423     -11556.551    
      8350   168.02327      335.05231     -2336.091       7.3192058     -2328.7718     -12180.535    
      8400   156.27696      311.6292      -2335.6165      6.8075289     -2328.809      -11888.81     
      8450   161.19036      321.42693     -2335.771       7.02156       -2328.7494     -12679.373    
      8500   166.52329      332.06124     -2336.0054      7.253866      -2328.7516     -13110.518    
      8550   160.32461      319.70056     -2335.7553      6.9838473     -2328.7715     -10636.599    
      8600   165.05018      329.12372     -2335.9935      7.189696      -2328.8038     -10707.955    
      8650   161.90395      322.84989     -2335.8713      7.0526443     -2328.8186     -11016.344    
      8700   167.99408      334.99412     -2336.1893      7.3179347     -2328.8713     -11035.006    
      8750   163.74263      326.51638     -2335.9346      7.1327387     -2328.8019     -13500.53     
      8800   140.14476      279.46026     -2334.898       6.1047995     -2328.7932     -12548.29     
      8850   135.05878      269.3184      -2334.6991      5.8832509     -2328.8158     -11335.867    
      8900   152.7515       304.59914     -2335.4915      6.6539574     -2328.8376     -11857.041    
      8950   156.38575      311.84614     -2335.6992      6.8122678     -2328.8869     -12761.843    
      9000   153.66208      306.41492     -2335.6582      6.6936231     -2328.9646     -10396.068    
      9050   159.87156      318.79714     -2335.7724      6.9641122     -2328.8083     -10062.241    
      9100   145.252        289.64452     -2335.2629      6.3272743     -2328.9356     -13051.011    
      9150   165.65148      330.32277     -2336.0691      7.2158893     -2328.8533     -13712.867    
      9200   167.59343      334.19519     -2336.1908      7.300482      -2328.8903     -11110.022    
      9250   167.11416      333.23948     -2336.2637      7.2796046     -2328.9841     -11018.885    
      9300   156.05909      311.19476     -2335.7517      6.7980384     -2328.9536     -10950.253    
      9350   154.17115      307.43004     -2335.6258      6.7157984     -2328.91       -9649.1077    
      9400   155.51654      310.11286     -2335.6626      6.7744045     -2328.8882     -12749.842    
      9450   155.25223      309.58582     -2335.6826      6.7628912     -2328.9197     -13761.563    
      9500   151.83281      302.7672      -2335.5512      6.6139386     -2328.9373     -12751.668    
      9550   146.32692      291.78799     -2335.3239      6.3740984     -2328.9498     -10126.716    
      9600   170.94539      340.87927     -2336.4314      7.4464957     -2328.9849     -14719.129    
      9650   155.94373      310.96472     -2335.7187      6.7930132     -2328.9257     -13657.196    
      9700   148.29414      295.7108      -2335.4243      6.4597919     -2328.9645     -13560.492    
      9750   156.54093      312.15558     -2335.7873      6.8190276     -2328.9683     -12531.205    
      9800   153.33048      305.75367     -2335.6712      6.6791781     -2328.992      -12623.567    
      9850   152.96629      305.02745     -2335.676       6.6633138     -2329.0127     -13067.819    
      9900   156.02102      311.11883     -2335.8336      6.7963799     -2329.0372     -13007.581    
      9950   151.69168      302.48577     -2335.5599      6.6077908     -2328.9521     -12663.089    
     10000   158.56466      316.19107     -2335.9085      6.9071827     -2329.0013     -11462.948    
     10050   164.56524      328.15672     -2336.2038      7.168572      -2329.0352     -11625.056    
     10100   143.70507      286.55982     -2335.2909      6.2598891     -2329.031      -12949.357    
     10150   147.91374      294.95225     -2335.4973      6.4432215     -2329.054      -13808.502    
     10200   157.81807      314.70231     -2335.9499      6.8746608     -2329.0752     -12178.362    
     10250   151.65725      302.41712     -2335.6241      6.6062912     -2329.0178     -13799.911    
     10300   153.69383      306.47822     -2335.7325      6.6950058     -2329.0375     -10112.105    
     10350   153.1785       305.45062     -2335.768       6.6725579     -2329.0955     -10950.402    
     10400   139.19227      277.56091     -2335.1473      6.0633083     -2329.084      -12254.35     
     10450   158.09211      315.24876     -2336.0466      6.8865979     -2329.16       -12257.889    
     10500   155.92881      310.93497     -2335.9532      6.7923634     -2329.1609     -12286.176    
     10550   165.62787      330.27569     -2336.3177      7.2148608     -2329.1029     -13813.078    
     10600   165.39229      329.80593     -2336.3389      7.2045989     -2329.1343     -13560.266    
     10650   156.51423      312.10235     -2336.0068      6.8178647     -2329.189      -12570.627    
     10700   156.99485      313.06074     -2335.9515      6.8388007     -2329.1127     -11550.918    
     10750   146.98217      293.09463     -2335.5308      6.4026417     -2329.1282     -12268.466    
     10800   154.88519      308.85389     -2335.9517      6.7469023     -2329.2048     -12241.062    
     10850   149.7568       298.62746     -2335.6182      6.5235063     -2329.0947     -14208.765    
     10900   150.71865      300.54547     -2335.6853      6.5654052     -2329.1199     -11921.926    
     10950   147.55338      294.23366     -2335.5996      6.4275239     -2329.1721     -12609.773    
     11000   152.78818      304.67229     -2335.7725      6.6555553     -2329.117      -12093.142    
     11050   132.20389      263.62551     -2334.894       5.7588898     -2329.1351     -12124.538    
     11100   144.5781       288.30071     -2335.4474      6.2979189     -2329.1495     -12120.28     
     11150   154.39543      307.87727     -2335.9413      6.725568      -2329.2158     -10094.054    
     11200   153.67866      306.44798     -2335.8569      6.6943453     -2329.1626     -11184.204    
     11250   155.63675      310.35257     -2335.9197      6.7796409     -2329.1401     -10506.489    
     11300   142.22246      283.60336     -2335.3754      6.1953053     -2329.1801     -14337.055    
     11350   148.99617      297.11071     -2335.68        6.490373      -2329.1896     -11090.389    
     11400   151.93323      302.96744     -2335.8056      6.618313      -2329.1873     -11130.834    
     11450   157.49805      314.06417     -2336.0417      6.8607206     -2329.181      -14153.044    
     11500   146.40454      291.94279     -2335.4769      6.3774798     -2329.0994     -14164.094    
     11550   148.59065      296.30206     -2335.6493      6.4727079     -2329.1766     -11628.415    
     11600   171.23606      341.45889     -2336.5969      7.4591573     -2329.1378     -11636.814    
     11650   148.87308      296.86525     -2335.7033      6.4850108     -2329.2183     -14779.834    
     11700   162.1441       323.32877     -2336.2278      7.0631054     -2329.1647     -10784.686    
     11750   142.82265      284.80019     -2335.2851      6.2214501     -2329.0637     -10778.788    
     11800   153.35757      305.8077      -2335.8429      6.6803584     -2329.1626     -14019.703    
     11850   148.50094      296.12317     -2335.5566      6.4688002     -2329.0878     -10930.342    
     11900   151.11812      301.34204     -2335.7091      6.5828062     -2329.1262     -13266.523    
     11950   158.04105      315.14694     -2336.0158      6.8843738     -2329.1315     -11235.29     
     12000   166.34696      331.70962     -2336.3928      7.2461849     -2329.1466     -11650.846    
     12050   158.90666      316.87304     -2336.0098      6.9220803     -2329.0877     -10579.529    
     12100   153.7007       306.49192     -2335.8641      6.6953051     -2329.1688     -10931.589    
     12150   153.5637       306.21874     -2335.8906      6.6893376     -2329.2013     -13892.788    
     12200   153.99371      307.07622     -2335.8522      6.708069      -2329.1442     -11309.426    
     12250   151.40154      301.90721     -2335.7355      6.5951523     -2329.1404     -12351.478    
     12300   140.57139      280.311       -2335.3153      6.1233838     -2329.1919     -10930.817    
     12350   144.54287      288.23046     -2335.4587      6.2963841     -2329.1623     -13315.52     
     12400   142.33015      283.81811     -2335.282       6.1999966     -2329.082      -9870.9575    
     12450   157.16618      313.40239     -2336.0261      6.8462641     -2329.1799     -12301.979    
     12500   157.44667      313.9617      -2336.0501      6.8584822     -2329.1916     -10121.546    
     12550   149.64425      298.40303     -2335.77        6.5186036     -2329.2514     -11717.339    
     12600   143.26433      285.68094     -2335.3776      6.2406899     -2329.1369     -9273.4719    
     12650   158.06631      315.19732     -2335.9657      6.8854743     -2329.0802     -13396.392    
     12700   152.56229      304.22185     -2335.7393      6.6457155     -2329.0936     -12324.77     
     12750   149.01785      297.15394     -2335.583       6.4913172     -2329.0916     -10214.241    
     12800   153.98059      307.05006     -2335.8719      6.7074977     -2329.1644     -16028.77     
     12850   165.48113      329.98309     -2336.352       7.2084689     -2329.1435     -11165.42     
     12900   154.56328      308.21198     -2335.9195      6.7328798     -2329.1866     -11810.319    
     12950   161.23156      321.50909     -2336.0908      7.0233546     -2329.0675     -14314.873    
     13000   153.09863      305.29135     -2335.7991      6.6690787     -2329.13       -14964.778    
     13050   152.11858      303.33704     -2335.7286      6.626387      -2329.1022     -11110.584    
     13100   151.35236      301.80914     -2335.7236      6.5930099     -2329.1306     -12986.261    
     13150   152.32981      303.75827     -2335.7783      6.6355885     -2329.1427     -14114.087    
     13200   159.92936      318.9124      -2336.1752      6.9666301     -2329.2085     -10147.761    
     13250   153.26729      305.62767     -2335.808       6.6764256     -2329.1316     -14644.171    
     13300   159.7155       318.48594     -2336.1477      6.957314      -2329.1904     -13735.709    
     13350   160.00056      319.05437     -2336.2037      6.9697314     -2329.2339     -9557.9845    
     13400   147.64275      294.41188     -2335.658       6.431417      -2329.2266     -15154.177    
     13450   151.3142       301.73305     -2335.9353      6.5913479     -2329.344      -14804.547    
     13500   142.39333      283.94409     -2335.4356      6.2027486     -2329.2329     -12705.235    
     13550   151.78359      302.66904     -2335.7257      6.6117945     -2329.1139     -12016.557    
     13600   155.8045       310.68708     -2336.0001      6.7869481     -2329.2131     -12352.514    
     13650   152.10101      303.30202     -2335.8567      6.6256218     -2329.2311     -11813.798    
     13700   163.53798      326.10828     -2336.3441      7.1238239     -2329.2202     -12457.445    
     13750   155.07441      309.23122     -2336.1015      6.755145      -2329.3463     -12789.895    
     13800   153.31942      305.73162     -2336.0423      6.6786964     -2329.3636     -13799.312    
     13850   165.85016      330.71895     -2336.3685      7.2245438     -2329.144      -10307.364    
     13900   160.4041       319.85906     -2336.1537      6.9873097     -2329.1664     -15630.633    
     13950   142.08229      283.32385     -2335.439       6.1891994     -2329.2498     -10548.784    
     14000   165.94459      330.90725     -2336.4445      7.2286572     -2329.2158     -13846.952    
     14050   162.92428      324.88451     -2336.4199      7.0970905     -2329.3228     -15845.525    
     14100   153.15929      305.41231     -2335.9528      6.6717211     -2329.281      -13782.786    
     14150   159.41799      317.89268     -2336.1857      6.9443542     -2329.2413     -12781.372    
     14200   157.22857      313.52679     -2336.1572      6.8489816     -2329.3082     -12314.231    
     14250   149.53614      298.18746     -2335.7718      6.5138944     -2329.2579     -13483.776    
     14300   150.61205      300.3329      -2335.8001      6.5607615     -2329.2394     -10870.247    
     14350   158.35946      315.78188     -2336.173       6.898244      -2329.2748     -11536.556    
     14400   142.57709      284.31053     -2335.5283      6.2107533     -2329.3175     -13018.07     
     14450   146.56661      292.26597     -2335.5978      6.3845398     -2329.2132     -11243.702    
     14500   145.04562      289.23299     -2335.5559      6.3182844     -2329.2376     -12782.198    
     14550   156.90991      312.89137     -2336.0786      6.8351008     -2329.2435     -14463.452    
     14600   169.14694      337.29302     -2336.758       7.3681541     -2329.3899     -13390.521    
     14650   167.93886      334.88399     -2336.6016      7.3155289     -2329.2861     -15008.503    
     14700   154.60992      308.30498     -2336.0485      6.7349114     -2329.3136     -11910.264    
     14750   148.01491      295.15399     -2335.7286      6.4476284     -2329.281      -11148.112    
     14800   146.9023       292.93535     -2335.7561      6.3991622     -2329.357      -15068.732    
     14850   156.01847      311.11375     -2336.1025      6.7962688     -2329.3062     -13607.63     
     14900   156.67827      312.42944     -2336.1641      6.82501       -2329.3391     -12562.92     
     14950   148.58359      296.28799     -2335.8493      6.4724007     -2329.3769     -14565.893    
     15000   156.72799      312.52859     -2336.1419      6.8271761     -2329.3148     -11683.571    
     15050   153.73162      306.55359     -2336.0019      6.6966524     -2329.3052     -13404.114    
     15100   160.8961       320.84014     -2336.3174      7.0087416     -2329.3087     -13179.354    
     15150   161.84428      322.7309      -2336.3258      7.050045      -2329.2758     -14551.654    
     15200   157.02315      313.11717     -2336.2399      6.8400334     -2329.3998     -10819.295    
     15250   159.7419       318.53858     -2336.3455      6.9584639     -2329.387      -13552.127    
     15300   154.82645      308.73677     -2336.0668      6.7443438     -2329.3224     -11910.344    
     15350   149.34205      297.80041     -2335.7493      6.5054394     -2329.2438     -14299.423    
     15400   148.98647      297.09136     -2335.7533      6.4899503     -2329.2633     -13097.06     
     15450   151.02045      301.14729     -2335.888       6.5785519     -2329.3094     -11501.39     
     15500   153.92611      306.94141     -2336.022       6.7051242     -2329.3168     -10943.656    
     15550   153.40489      305.90205     -2336.0128      6.6824195     -2329.3304     -13004.208    
     15600   160.14619      319.34477     -2336.464       6.9760753     -2329.4879     -13240.489    
     15650   155.25699      309.59531     -2336.0522      6.7630985     -2329.2891     -11919.536    
     15700   151.1571       301.41978     -2335.9034      6.5845043     -2329.3189     -11050.316    
     15750   170.14618      339.28557     -2336.7845      7.4116813     -2329.3728     -14344.524    
     15800   145.0392       289.22017     -2335.6273      6.3180044     -2329.3093     -17068.092    
     15850   168.98482      336.96972     -2336.8067      7.3610916     -2329.4456     -13483.522    
     15900   150.30969      299.72997     -2335.9594      6.5475905     -2329.4118     -14232.488    
     15950   157.08978      313.25003     -2336.1032      6.8429358     -2329.2602     -16707.62     
     16000   151.12785      301.36146     -2335.8573      6.5832304     -2329.2741     -13714.342    
     16050   144.68953      288.52291     -2335.5889      6.3027727     -2329.2861     -14674.479    
     16100   155.96151      311.00018     -2336.1002      6.7937879     -2329.3064     -14347.815    
     16150   141.20613      281.57672     -2335.4796      6.1510334     -2329.3285     -15311.368    
     16200   156.45105      311.97636     -2336.2038      6.8151124     -2329.3887     -15495.879    
     16250   160.41501      319.88082     -2336.2683      6.9877851     -2329.2805     -17150.859    
     16300   162.50306      324.04456     -2336.4069      7.078742      -2329.3282     -13699.217    
     16350   159.60291      318.26143     -2336.2851      6.9524096     -2329.3327     -15613.06     
     16400   156.80475      312.68167     -2336.1642      6.8305199     -2329.3337     -11401.876    
     16450   156.29146      311.65811     -2336.1514      6.8081604     -2329.3432     -13175.525    
     16500   151.18187      301.46917     -2336.0198      6.5855833     -2329.4342     -13952.482    
     16550   150.12692      299.36551     -2335.8217      6.5396289     -2329.2821     -15844.544    
     16600   160.27987      319.61134     -2336.2797      6.9818985     -2329.2978     -12334.952    
     16650   140.71217      280.59173     -2335.4381      6.1295164     -2329.3086     -13409.413    
     16700   160.32128      319.69391     -2336.3226      6.9837022     -2329.3389     -11441.941    
     16750   159.0368       317.13256     -2336.4131      6.9277496     -2329.4854     -11450.249    
     16800   164.79735      328.61957     -2336.6501      7.1786829     -2329.4715     -10428.963    
     16850   158.66212      316.3854      -2336.2601      6.9114279     -2329.3487     -13800.655    
     16900   149.48537      298.08622     -2335.8719      6.5116828     -2329.3602     -10636.74     
     16950   151.84249      302.7865      -2335.9957      6.6143604     -2329.3813     -11730.346    
     17000   155.4811       310.04218     -2336.1886      6.7728605     -2329.4157     -13282.688    
     17050   155.80041      310.67892     -2336.176       6.7867699     -2329.3893     -12888.494    
     17100   150.85266      300.8127      -2335.9944      6.5712428     -2329.4232     -11838.682    
     17150   170.98847      340.96517     -2336.749       7.448372      -2329.3006     -10349.923    
     17200   164.50676      328.0401      -2336.4883      7.1660243     -2329.3223     -14730.402    
     17250   158.33654      315.73618     -2336.2421      6.8972456     -2329.3449     -11556.032    
     17300   157.16932      313.40865     -2336.2448      6.8464009     -2329.3984     -13832.992    
     17350   150.40073      299.91151     -2335.9293      6.5515563     -2329.3778     -11312.157    
     17400   155.04255      309.16768     -2336.1515      6.753757      -2329.3978     -11231.563    
     17450   160.08161      319.216       -2336.2542      6.9732621     -2329.281      -12516.74     
     17500   159.10136      317.26129     -2336.2292      6.9305616     -2329.2986     -9383.7359    
     17550   149.76347      298.64077     -2335.8454      6.5237971     -2329.3216     -15811.246    
     17600   152.08529      303.27067     -2336.0344      6.624937      -2329.4095     -12772.524    
     17650   153.62772      306.3464      -2336.1477      6.6921262     -2329.4556     -15718.373    
     17700   162.26976      323.57934     -2336.4585      7.0685793     -2329.3899     -13248.236    
     17750   156.3123       311.69968     -2336.1779      6.8090684     -2329.3688     -10042.358    
     17800   150.64799      300.40458     -2335.9157      6.5623273     -2329.3533     -12321.878    
     17850   151.18031      301.46605     -2335.949       6.5855153     -2329.3635     -13827.672    
     17900   152.63299      304.36282     -2336.0381      6.648795      -2329.3893     -14842.617    
     17950   156.43328      311.94091     -2336.3085      6.8143382     -2329.4942     -13137.204    
     18000   153.95179      306.99262     -2336.1379      6.7062429     -2329.4317     -12270.243    
     18050   151.4147       301.93345     -2335.8703      6.5957256     -2329.2746     -11241.848    
     18100   135.70163      270.6003      -2335.1995      5.9112539     -2329.2883     -14503.896    
     18150   136.71018      272.61143     -2335.2605      5.9551871     -2329.3053     -11563.638    
     18200   152.36175      303.82195     -2335.9694      6.6369797     -2329.3324     -11167.603    
     18250   165.81466      330.64817     -2336.5302      7.2229976     -2329.3072     -14063.838    
     18300   161.73204      322.50709     -2336.3909      7.0451559     -2329.3458     -12563.184    
     18350   160.86637      320.78088     -2336.3355      7.0074469     -2329.3281     -13790.196    
     18400   154.67245      308.42967     -2336.0302      6.7376352     -2329.2926     -13082.139    
     18450   156.92322      312.91789     -2336.2082      6.8356803     -2329.3726     -14824.993    
     18500   155.8606       310.79895     -2336.0783      6.7893921     -2329.2889     -14210.035    
     18550   159.38301      317.82293     -2336.2259      6.9428307     -2329.283      -10749.236    
     18600   155.03002      309.1427      -2336.0608      6.7532113     -2329.3076     -11403.062    
     18650   164.74106      328.50732     -2336.4893      7.1762308     -2329.3131     -11726.13     
     18700   160.96857      320.98467     -2336.3335      7.0118988     -2329.3216     -15146.256    
     18750   167.65101      334.30999     -2336.6539      7.30299       -2329.3509     -14450.642    
     18800   165.28942      329.6008      -2336.4939      7.2001178     -2329.2938     -11284.717    
     18850   152.15169      303.40307     -2336.0043      6.6278293     -2329.3765     -13438.969    
     18900   150.80672      300.72109     -2335.8814      6.5692416     -2329.3122     -10076.188    
     18950   145.96901      291.07429     -2335.5761      6.3585075     -2329.2176     -13694.955    
     19000   152.91043      304.91607     -2335.9584      6.6608806     -2329.2976     -12580.76     
     19050   159.74774      318.55023     -2336.3451      6.9587185     -2329.3864     -12238.367    
     19100   165.03298      329.08944     -2336.5575      7.1889471     -2329.3685     -15894.506    
     19150   151.03365      301.17361     -2335.8776      6.5791269     -2329.2985     -11205.371    
     19200   169.47112      337.93945     -2336.7139      7.3822753     -2329.3317     -15337.019    
     19250   156.26434      311.60404     -2336.0512      6.8069792     -2329.2443     -14750.23     
     19300   159.96538      318.98422     -2336.2366      6.968199      -2329.2684     -12430.21     
     19350   160.94492      320.93751     -2336.2935      7.0108685     -2329.2827     -11653.15     
     19400   152.23898      303.57713     -2335.933       6.6316317     -2329.3013     -14472.754    
     19450   158.74899      316.55864     -2336.2307      6.9152123     -2329.3155     -14439.259    
     19500   163.91636      326.86281     -2336.4828      7.1403065     -2329.3425     -11067.028    
     19550   149.3497       297.81567     -2335.7562      6.5057728     -2329.2505     -11007.522    
     19600   155.97017      311.01745     -2336.0893      6.7941651     -2329.2951     -11680.294    
     19650   159.08275      317.22417     -2336.2149      6.9297508     -2329.2852     -13882.501    
     19700   163.74444      326.51997     -2336.492       7.1328173     -2329.3591     -11531.704    
     19750   163.68374      326.39893     -2336.5206      7.1301731     -2329.3904     -10663.86     
     19800   151.4343       301.97253     -2335.9687      6.5965793     -2329.3721     -11976.422    
     19850   148.62478      296.37013     -2335.8574      6.474195      -2329.3832     -11791.737    
     19900   164.10891      327.24676     -2336.5749      7.1486939     -2329.4262     -16911.402    
     19950   156.47945      312.03299     -2336.1175      6.8163497     -2329.3012     -11510.611    
     20000   171.80511      342.59362     -2336.8678      7.4839455     -2329.3839     -12793.102    
     20050   158.22227      315.50832     -2336.3081      6.892268      -2329.4158     -12225.244    
     20100   152.79374      304.68337     -2336.0146      6.6557974     -2329.3588     -13909.836    
     20150   146.2092       291.55326     -2335.6644      6.3689707     -2329.2954     -14131.812    
     20200   142.40436      283.96609     -2335.5024      6.2032291     -2329.2992     -13051.845    
     20250   160.92682      320.9014      -2336.3381      7.0100798     -2329.328      -11743.657    
     20300   158.80507      316.67047     -2336.3394      6.9176552     -2329.4218     -16172.54     
     20350   164.4091       327.84537     -2336.6258      7.1617704     -2329.464      -11789.23     
     20400   155.77604      310.63032     -2336.1657      6.7857083     -2329.38       -15160.905    
     20450   163.44134      325.91557     -2336.4406      7.119614      -2329.321      -12399.574    
     20500   166.68609      332.38587     -2336.5885      7.2609575     -2329.3275     -11593.968    
     20550   151.94544      302.99179     -2336.1272      6.6188449     -2329.5083     -14745.616    
     20600   148.5058       296.13286     -2335.9495      6.4690118     -2329.4805     -16963.384    
     20650   148.84473      296.80872     -2335.8596      6.4837759     -2329.3758     -14982.563    
     20700   159.20388      317.46573     -2336.3627      6.9350277     -2329.4276     -12717.043    
     20750   159.41409      317.88489     -2336.374       6.9441842     -2329.4298     -14687.378    
     20800   168.66798      336.33792     -2336.7938      7.34729       -2329.4466     -14239.647    
     20850   160.22792      319.50774     -2336.3717      6.9796352     -2329.3921     -11429.147    
     20900   155.29808      309.67724     -2336.1669      6.7648883     -2329.402      -10583.503    
     20950   163.81421      326.65911     -2336.5966      7.1358567     -2329.4608     -15357.919    
     21000   149.08573      297.28929     -2335.999       6.4942741     -2329.5047     -12118.623    
     21050   141.66759      282.49691     -2335.5949      6.1711349     -2329.4238     -14826.228    
     21100   155.43488      309.95003     -2336.1239      6.7708473     -2329.3531     -10987.811    
     21150   151.69149      302.4854      -2335.968       6.6077828     -2329.3602     -14841.193    
     21200   155.47951      310.03901     -2336.1821      6.7727913     -2329.4093     -12586.255    
     21250   163.00416      325.0438      -2336.6467      7.1005702     -2329.5461     -13741.085    
     21300   159.83635      318.72693     -2336.5035      6.9625785     -2329.5409     -12175.496    
     21350   154.4049       307.89617     -2336.1411      6.7259809     -2329.4151     -14346.14     
     21400   175.67508      350.31066     -2337.0074      7.652524      -2329.3549     -12964.632    
     21450   142.65615      284.46819     -2335.6128      6.2141974     -2329.3986     -12047.123    
     21500   160.40022      319.85132     -2336.4609      6.9871408     -2329.4738     -16840.353    
     21550   158.50967      316.08141     -2336.3468      6.9047872     -2329.442      -13498.852    
     21600   152.40166      303.90153     -2336.2407      6.6387181     -2329.602      -12426.168    
     21650   162.20389      323.44799     -2336.3891      7.0657099     -2329.3234     -11804.333    
     21700   160.27178      319.59521     -2336.4074      6.981546      -2329.4258     -12674.731    
     21750   159.71803      318.49098     -2336.3111      6.9574241     -2329.3537     -10919.267    
     21800   159.40238      317.86155     -2336.4006      6.9436744     -2329.457      -12715.192    
     21850   150.36065      299.83159     -2336.1605      6.5498104     -2329.6107     -10256.024    
     21900   158.08989      315.24435     -2336.3937      6.8865015     -2329.5072     -11724.47     
     21950   161.54549      322.13508     -2336.4722      7.0370295     -2329.4352     -11190.049    
     22000   164.26674      327.5615      -2336.6845      7.1555693     -2329.5289     -13528.069    
     22050   157.65566      314.37844     -2336.5666      6.8675858     -2329.699      -12239.271    
     22100   163.85615      326.74274     -2336.7597      7.1376835     -2329.622      -11610.351    
     22150   149.96025      299.03317     -2336.0754      6.5323689     -2329.543      -13732.588    
     22200   136.91257      273.015       -2335.535       5.9640029     -2329.571      -10343.219    
     22250   143.10428      285.36179     -2335.7911      6.2337181     -2329.5573     -11970.414    
     22300   171.55578      342.09644     -2336.997       7.4730845     -2329.5239     -12840.106    
     22350   160.50887      320.06798     -2336.5594      6.9918737     -2329.5675     -13009.29     
     22400   149.13278      297.38311     -2335.952       6.4963236     -2329.4557     -11885.117    
     22450   154.37354      307.83363     -2336.3321      6.7246147     -2329.6074     -11585.933    
     22500   141.29876      281.76144     -2335.7571      6.1550687     -2329.602      -10639.229    
     22550   154.50089      308.08758     -2336.2624      6.7301622     -2329.5323     -10799.634    
     22600   148.5859       296.29259     -2335.8962      6.4725011     -2329.4237     -11366.245    
     22650   159.64805      318.35143     -2336.411       6.9543758     -2329.4567     -11633.415    
     22700   155.51511      310.11001     -2336.279       6.7743422     -2329.5047     -10543.169    
     22750   157.7214       314.50954     -2336.4188      6.8704497     -2329.5483     -13500.96     
     22800   147.50211      294.13143     -2336.0013      6.4252907     -2329.576      -11051.781    
     22850   160.98979      321.02698     -2336.5401      7.012823      -2329.5273     -13895.115    
     22900   139.34324      277.86197     -2335.4679      6.0698849     -2329.3981     -13701.337    
     22950   152.6526       304.40194     -2336.1584      6.6496495     -2329.5087     -14141.411    
     23000   148.95228      297.02319     -2335.9379      6.4884611     -2329.4494     -13746.753    
     23050   162.13967      323.31994     -2336.5082      7.0629127     -2329.4453     -13975.282    
     23100   149.84185      298.79707     -2335.9787      6.5272114     -2329.4515     -16040.311    
     23150   152.66455      304.42577     -2336.021       6.6501701     -2329.3708     -10454.146    
     23200   165.78002      330.5791      -2336.6562      7.2214886     -2329.4347     -14319.144    
     23250   156.57148      312.21649     -2336.2071      6.8203582     -2329.3867     -13554.108    
     23300   156.86069      312.7932      -2336.2278      6.8329565     -2329.3949     -12033.834    
     23350   155.91322      310.90388     -2336.2622      6.7916843     -2329.4705     -15742.055    
     23400   171.9529       342.88833     -2336.9272      7.4903834     -2329.4368     -15510.665    
     23450   155.01195      309.10668     -2336.2141      6.7524243     -2329.4617     -11629.523    
     23500   159.42488      317.90642     -2336.3367      6.9446545     -2329.392      -16287.351    
     23550   161.6899       322.42305     -2336.4948      7.04332       -2329.4515     -11540.069    
     23600   156.48289      312.03984     -2336.2633      6.8164993     -2329.4468     -14609.711    
     23650   146.72853      292.58883     -2335.9272      6.3915927     -2329.5356     -13761.32     
     23700   151.17398      301.45343     -2336.0159      6.5852396     -2329.4307     -12431.663    
     23750   162.09726      323.23537     -2336.4025      7.0610653     -2329.3415     -14853.617    
     23800   153.95797      307.00495     -2336.069       6.7065123     -2329.3625     -11982.76     
     23850   156.55896      312.19153     -2336.2841      6.819813      -2329.4643     -10796.951    
     23900   155.07145      309.22531     -2336.1278      6.7550159     -2329.3728     -12429.242    
     23950   168.23466      335.47384     -2336.7702      7.3284141     -2329.4418     -11101.963    
     24000   164.19232      327.41309     -2336.5818      7.1523274     -2329.4294     -14106.841    
     24050   162.56729      324.17263     -2336.3972      7.0815397     -2329.3157     -12187.744    
     24100   158.5724       316.2065      -2336.3467      6.9075199     -2329.4392     -12345.683    
     24150   167.9468       334.89983     -2336.8374      7.3158749     -2329.5215     -11221.236    
     24200   145.16553      289.4721      -2335.6937      6.3235077     -2329.3702     -14481.242    
     24250   153.48007      306.05198     -2336.1634      6.6856946     -2329.4777     -10244.561    
     24300   165.32194      329.66564     -2336.7144      7.2015341     -2329.5129     -13132.618    
     24350   161.59782      322.23944     -2336.4677      7.0393091     -2329.4283     -12102.342    
     24400   151.6943       302.49099     -2336.1176      6.607905      -2329.5097     -12555.624    
     24450   145.79282      290.72296     -2335.8443      6.3508327     -2329.4934     -13308.856    
     24500   149.81605      298.74562     -2335.9223      6.5260875     -2329.3962     -12311.867    
     24550   169.08968      337.17883     -2336.7817      7.3656596     -2329.416      -12728.617    
     24600   164.20458      327.43753     -2336.6553      7.1528613     -2329.5025     -13471.638    
     24650   161.5408       322.12574     -2336.3867      7.0368254     -2329.3499     -13681.81     
     24700   160.10972      319.27205     -2336.4492      6.9744866     -2329.4747     -11682.91     
     24750   156.50133      312.07663     -2336.3486      6.8173028     -2329.5313     -11335.321    
     24800   148.95082      297.02027     -2335.9139      6.4883972     -2329.4255     -12058.739    
     24850   151.94005      302.98105     -2336.1698      6.6186103     -2329.5512     -12911.995    
     24900   142.92846      285.01119     -2335.6558      6.2260594     -2329.4297     -7216.0522    
     24950   157.58005      314.22767     -2336.4126      6.8642924     -2329.5483     -13278.906    
     25000   161.75212      322.54712     -2336.5498      7.0460304     -2329.5038     -11644.732    
     25050   161.31743      321.68031     -2336.5071      7.027095      -2329.48       -10937.8      
     25100   166.63232      332.27865     -2336.7762      7.2586153     -2329.5176     -15004.435    
     25150   158.54785      316.15755     -2336.4345      6.9064504     -2329.5281     -12685.786    
     25200   167.1438       333.29858     -2336.7735      7.2808956     -2329.4927     -14677.25     
     25250   148.15781      295.43894     -2335.9005      6.4538531     -2329.4466     -11307.273    
     25300   162.8649       324.76611     -2336.5744      7.0945041     -2329.4799     -9773.8248    
     25350   153.21344      305.52029     -2336.1387      6.6740799     -2329.4646     -14237.976    
     25400   154.09682      307.28183     -2336.1903      6.7125606     -2329.4778     -10647.407    
     25450   152.95539      305.00571     -2336.284       6.662839      -2329.6212     -12210.722    
     25500   162.46864      323.97593     -2336.6004      7.0772427     -2329.5232     -10871.162    
     25550   144.22161      287.58983     -2335.7265      6.2823896     -2329.4441     -9569.9115    
     25600   146.62142      292.37526     -2335.9673      6.3869271     -2329.5803     -11093.435    
     25650   161.51015      322.06461     -2336.8072      7.03549       -2329.7717     -10625.633    
     25700   142.87294      284.90049     -2335.8711      6.223641      -2329.6475     -8764.9872    
     25750   157.93849      314.94242     -2336.4216      6.8799061     -2329.5417     -14177.31     
     25800   158.27609      315.61564     -2336.4727      6.8946125     -2329.578      -9466.2238    
     25850   158.05501      315.17477     -2336.3698      6.8849818     -2329.4848     -10998.686    
     25900   168.22554      335.45566     -2336.8415      7.3280169     -2329.5135     -12774.262    
     25950   163.38917      325.81153     -2336.6574      7.1173414     -2329.54       -12788.843    
     26000   160.69164      320.43244     -2336.6891      6.9998352     -2329.6893     -8910.4494    
     26050   156.70629      312.48532     -2336.4023      6.8262308     -2329.5761     -11583.873    
     26100   145.73695      290.61155     -2335.9536      6.3483991     -2329.6052     -15563.29     
     26150   157.04641      313.16355     -2336.3694      6.8410466     -2329.5284     -15408.797    
     26200   153.31946      305.73171     -2336.2019      6.6786983     -2329.5232     -14398.9      
     26250   157.60359      314.27462     -2336.4854      6.865318      -2329.62       -12467.334    
     26300   148.09399      295.31169     -2336.0638      6.4510734     -2329.6127     -12621.473    
     26350   156.09825      311.27285     -2336.3732      6.7997443     -2329.5735     -13842.93     
     26400   153.77094      306.63199     -2336.3964      6.698365      -2329.6981     -12706.284    
     26450   145.9493       291.03499     -2335.9618      6.357649      -2329.6042     -13465.485    
     26500   147.87959      294.88415     -2336.0172      6.4417338     -2329.5754     -12307.976    
     26550   158.89762      316.85502     -2336.5739      6.9216866     -2329.6522     -13284.343    
     26600   167.56708      334.14264     -2337.0356      7.299334      -2329.7363     -11560.127    
     26650   155.15383      309.3896      -2336.4815      6.7586048     -2329.7229     -12291.229    
     26700   155.55341      310.18639     -2336.5064      6.7760107     -2329.7304     -13592.296    
     26750   162.10059      323.24201     -2336.5545      7.0612101     -2329.4933     -11676.973    
     26800   159.15463      317.36752     -2336.5799      6.9328822     -2329.647      -15128.304    
     26850   160.31853      319.68842     -2336.5226      6.9835823     -2329.539      -13072.558    
     26900   156.22367      311.52295     -2336.5462      6.8052077     -2329.741      -13684.543    
     26950   146.27006      291.67462     -2335.9302      6.3716218     -2329.5586     -11966.458    
     27000   142.90026      284.95496     -2335.8856      6.224831      -2329.6607     -9050.1927    
     27050   151.82334      302.74831     -2336.2834      6.6135261     -2329.6699     -14961.227    
     27100   153.23197      305.55725     -2336.1805      6.6748873     -2329.5056     -12354.219    
     27150   144.81962      288.78232     -2335.8835      6.3084396     -2329.5751     -13101.943    
     27200   146.67283      292.47778     -2335.9215      6.3891667     -2329.5324     -13296.95     
     27250   158.59851      316.25856     -2336.4665      6.908657      -2329.5579     -12720.328    
     27300   150.74472      300.59746     -2336.1322      6.5665407     -2329.5657     -12835.921    
     27350   134.23816      267.68201     -2335.3073      5.8475039     -2329.4598     -13660.17     
     27400   152.04981      303.19991     -2336.1038      6.6233913     -2329.4804     -13615.362    
     27450   135.35461      269.9083      -2335.5402      5.8961372     -2329.6441     -11926.908    
     27500   145.06718      289.27597     -2335.9363      6.3192233     -2329.6171     -14879.222    
     27550   149.29746      297.71151     -2336.0146      6.5034973     -2329.5111     -13799.451    
     27600   163.22806      325.49028     -2336.6489      7.1103237     -2329.5386     -11474.893    
     27650   152.53682      304.17106     -2336.0795      6.644606      -2329.4349     -13639.495    
     27700   154.70494      308.49447     -2336.2077      6.7390507     -2329.4687     -13950.35     
     27750   146.76279      292.65716     -2335.8585      6.3930852     -2329.4654     -13832.556    
     27800   160.62116      320.29189     -2336.4815      6.996765      -2329.4847     -11751.171    
     27850   148.45115      296.0239      -2335.9779      6.4666316     -2329.5112     -12234.416    
     27900   162.36502      323.7693      -2336.5836      7.0727289     -2329.5108     -10989.213    
     27950   152.26099      303.62103     -2336.1389      6.6325907     -2329.5063     -13333.225    
     28000   150.20762      299.52643     -2335.9683      6.5431442     -2329.4252     -15629.363    
     28050   148.28184      295.68628     -2335.8972      6.4592563     -2329.438      -11107.709    
     28100   144.58951      288.32347     -2335.7527      6.2984159     -2329.4543     -11522.506    
     28150   148.52366      296.16847     -2335.9339      6.4697898     -2329.4642     -13720.855    
     28200   154.4209       307.92807     -2336.1979      6.7266778     -2329.4712     -10725.987    
     28250   153.48244      306.05671     -2336.0671      6.6857979     -2329.3813     -13984.826    
     28300   153.73307      306.55648     -2336.0915      6.6967153     -2329.3948     -11528.673    
     28350   156.04503      311.16671     -2336.2666      6.7974258     -2329.4691     -12578.37     
     28400   151.75198      302.60602     -2336.0719      6.6104178     -2329.4615     -11869.102    
     28450   151.4191       301.94223     -2336.1029      6.5959173     -2329.507      -11878.402    
     28500   150.44823      300.00623     -2336.1082      6.5536254     -2329.5546     -12845.227    
     28550   162.18306      323.40646     -2336.5375      7.0648026     -2329.4727     -15171.499    
     28600   161.7186       322.48028     -2336.5457      7.0445702     -2329.5011     -12012.641    
     28650   163.48804      326.00869     -2336.6949      7.1216483     -2329.5733     -13800.828    
     28700   160.8943       320.83657     -2336.4307      7.0086635     -2329.4221     -10749.306    
     28750   153.58518      306.26157     -2336.2168      6.6902731     -2329.5265     -13793.824    
     28800   155.18945      309.46062     -2336.2335      6.7601564     -2329.4733     -11098.545    
     28850   153.69177      306.47413     -2336.06        6.6949164     -2329.3651     -11912.473    
     28900   165.02027      329.06408     -2336.5884      7.1883932     -2329.4001     -13253.514    
     28950   149.99279      299.09804     -2335.8952      6.5337862     -2329.3614     -12095.749    
     29000   147.99183      295.10797     -2335.8705      6.4466231     -2329.4238     -9743.0269    
     29050   148.61365      296.34793     -2335.9757      6.4737101     -2329.502      -12062.623    
     29100   155.15323      309.38839     -2336.184       6.7585783     -2329.4255     -10074.619    
     29150   163.42516      325.88331     -2336.5628      7.1189093     -2329.4439     -12969.607    
     29200   155.98842      311.05383     -2336.2554      6.79496       -2329.4605     -12696.277    
     29250   144.26726      287.68088     -2335.776       6.2843785     -2329.4916     -13156.399    
     29300   141.31342      281.79067     -2335.5378      6.1557073     -2329.382      -12935.141    
     29350   143.09937      285.352       -2335.7281      6.2335043     -2329.4946     -12600.952    
     29400   148.64665      296.41374     -2335.9236      6.4751477     -2329.4484     -14554.54     
     29450   142.99399      285.14187     -2335.7561      6.228914      -2329.5272     -12670.315    
     29500   155.54268      310.16499     -2336.1527      6.7755431     -2329.3772     -13285.234    
     29550   148.85649      296.83217     -2335.927       6.4842882     -2329.4427     -12588.47     
     29600   151.89589      302.893       -2336.0494      6.6166868     -2329.4328     -12449.009    
     29650   155.03642      309.15547     -2336.168       6.7534903     -2329.4145     -14115.198    
     29700   156.27103      311.61739     -2336.3033      6.8072707     -2329.496      -15107.878    
     29750   165.93777      330.89366     -2336.5767      7.2283602     -2329.3483     -8906.7912    
     29800   166.48545      331.98578     -2336.6165      7.2522176     -2329.3642     -11788.044    
     29850   166.06214      331.14166     -2336.7109      7.2337779     -2329.4772     -12893.522    
     29900   147.88246      294.88988     -2335.8971      6.441859      -2329.4553     -12897.897    
     29950   156.5678       312.20917     -2336.2808      6.8201981     -2329.4606     -13158.016    
     30000   152.44724      303.99243     -2336.139       6.6407038     -2329.4983     -12936.922    
     30050   151.88557      302.87241     -2336.0449      6.6162371     -2329.4287     -13857.289    
     30100   155.62859      310.3363      -2336.1515      6.7792854     -2329.3722     -13033.846    
     30150   164.63563      328.29709     -2336.6753      7.1716383     -2329.5036     -13782.459    
     30200   155.05495      309.19241     -2336.2372      6.7542973     -2329.4829     -12895.355    
     30250   140.96272      281.09135     -2335.6749      6.1404305     -2329.5345     -11932.46     
     30300   160.69878      320.44667     -2336.5063      7.0001462     -2329.5061     -11316.762    
     30350   160.16054      319.37338     -2336.4923      6.9767002     -2329.5156     -15718.122    
     30400   163.90077      326.83171     -2336.627       7.1396271     -2329.4874     -12063.411    
     30450   160.14696      319.3463      -2336.5741      6.9761086     -2329.598      -11630.41     
     30500   161.91292      322.86777     -2336.6192      7.0530351     -2329.5661     -13022.156    
     30550   149.16294      297.44325     -2336.1206      6.4976373     -2329.623      -13558.003    
     30600   159.48688      318.03006     -2336.6387      6.9473553     -2329.6913     -12744.718    
     30650   149.82709      298.76763     -2335.9709      6.5265683     -2329.4443     -13684.845    
     30700   153.21172      305.51686     -2336.2022      6.674005      -2329.5282     -12288.957    
     30750   158.1471       315.35841     -2336.3921      6.8889933     -2329.5031     -10997.493    
     30800   167.59995      334.20818     -2336.7156      7.3007659     -2329.4148     -13236.456    
     30850   159.01455      317.08819     -2336.3727      6.9267802     -2329.4459     -10054.463    
     30900   153.65052      306.39187     -2336.1495      6.6931195     -2329.4564     -15151.634    
     30950   161.30051      321.64659     -2336.4575      7.0263583     -2329.4312     -12951.368    
     31000   164.25156      327.53121     -2336.5832      7.1549076     -2329.4283     -14337.826    
     31050   159.15055      317.35938     -2336.5183      6.9327044     -2329.5856     -11448.886    
     31100   150.81306      300.73374     -2336.0515      6.5695178     -2329.482      -14571.521    
     31150   140.77717      280.72134     -2335.6465      6.1323478     -2329.5141     -9595.7119    
     31200   159.71571      318.48636     -2336.483       6.9573233     -2329.5257     -14582.378    
     31250   172.00633      342.99487     -2336.9277      7.4927108     -2329.435      -11205.734    
     31300   159.9434       318.94039     -2336.4105      6.9672415     -2329.4432     -11253.97     
[...]
    191700   151.9683       303.03738     -2341.692       6.6198408     -2335.0722     -23159.85     
    191750   134.40142      268.00756     -2340.8438      5.8546157     -2334.9892     -22772.237    
    191800   154.22743      307.54226     -2341.7363      6.7182498     -2335.018      -22424.409    
    191850   145.34477      289.8295      -2341.3683      6.3313152     -2335.0369     -21885.929    
    191900   148.11526      295.35409     -2341.4961      6.4519997     -2335.0441     -23548.285    
    191950   156.87096      312.81369     -2341.8914      6.8334039     -2335.058      -23121.271    
    192000   150.04595      299.20405     -2341.6148      6.5361019     -2335.0787     -22443.982    
    192050   154.2242       307.53584     -2341.7482      6.7181095     -2335.0301     -19529.635    
    192100   146.33927      291.81263     -2341.4168      6.3746365     -2335.0422     -22332.722    
    192150   153.84984      306.78932     -2341.754       6.7018019     -2335.0522     -22754.964    
    192200   159.92455      318.9028      -2342.0078      6.9664204     -2335.0414     -21819.587    
    192250   160.75023      320.54927     -2342.0686      7.0023874     -2335.0662     -24101.444    
    192300   126.17251      251.59844     -2340.6712      5.4961589     -2335.175      -22824.252    
    192350   154.95031      308.98376     -2341.7313      6.7497393     -2334.9816     -20468.335    
    192400   147.10081      293.3312      -2341.4541      6.4078096     -2335.0462     -24741.633    
    192450   143.54275      286.23613     -2341.316       6.2528181     -2335.0631     -21698.877    
    192500   159.79303      318.64054     -2341.983       6.9606913     -2335.0223     -25146.489    
    192550   154.212        307.51151     -2341.7538      6.717578      -2335.0362     -26338.046    
    192600   139.09026      277.35749     -2341.1027      6.0588646     -2335.0438     -24283.569    
    192650   147.35675      293.84157     -2341.3805      6.4189586     -2334.9615     -26620.262    
    192700   133.71921      266.64718     -2340.8214      5.8248982     -2334.9965     -22589.668    
    192750   138.22549      275.63307     -2341.1131      6.0211947     -2335.0919     -24348.228    
    192800   153.47163      306.03514     -2341.7663      6.6853268     -2335.081      -26275.17     
    192850   141.11033      281.38568     -2341.1976      6.1468602     -2335.0507     -23723.47     
    192900   144.61941      288.38308     -2341.3524      6.2997181     -2335.0527     -24846.642    
    192950   150.48793      300.08539     -2341.5997      6.5553547     -2335.0444     -24257.4      
    193000   154.33475      307.75628     -2341.754       6.7229249     -2335.0311     -24302.946    
    193050   149.84547      298.80428     -2341.6376      6.5273689     -2335.1102     -26847.805    
    193100   146.86776      292.86648     -2341.3851      6.3976579     -2334.9875     -23359.785    
    193150   154.1531       307.39404     -2341.7068      6.715012      -2334.9918     -23769.014    
    193200   154.82566      308.73519     -2341.7334      6.7443094     -2334.9891     -23950.284    
    193250   149.23746      297.59186     -2341.3983      6.5008836     -2334.8974     -22699.457    
    193300   158.17473      315.41352     -2341.8554      6.8901972     -2334.9652     -21924.522    
    193350   151.45875      302.0213      -2341.5855      6.5976446     -2334.9879     -22210.453    
    193400   157.78834      314.64301     -2341.8226      6.8733654     -2334.9493     -22711.21     
    193450   144.72717      288.59797     -2341.2544      6.3044123     -2334.95       -23296.465    
    193500   152.35299      303.80449     -2341.6031      6.6365983     -2334.9665     -20912.542    
    193550   155.26144      309.60417     -2341.6576      6.7632921     -2334.8943     -19949.237    
    193600   162.36559      323.77044     -2341.9868      7.0727537     -2334.9141     -24135.086    
    193650   154.37274      307.83204     -2341.6386      6.72458       -2334.9141     -23531.063    
    193700   165.45105      329.9231      -2342.1329      7.2071585     -2334.9257     -23940.079    
    193750   151.05245      301.2111      -2341.5065      6.5799459     -2334.9266     -22894.851    
    193800   152.27303      303.64504     -2341.569       6.6331151     -2334.9359     -21080.776    
    193850   138.85783      276.89403     -2340.8882      6.0487402     -2334.8394     -23030.994    
    193900   150.50271      300.11487     -2341.4694      6.5559988     -2334.9134     -23096.475    
    193950   158.83628      316.73269     -2341.8037      6.9190144     -2334.8847     -24851.338    
    194000   155.3852       309.85096     -2341.6549      6.7686831     -2334.8862     -24393.829    
    194050   160.36342      319.77794     -2341.9546      6.9855378     -2334.9691     -21806.757    
    194100   144.96894      289.08008     -2341.3483      6.314944      -2335.0334     -23636.072    
    194150   165.39909      329.81949     -2342.2047      7.2048951     -2334.9998     -22245.198    
    194200   149.08947      297.29675     -2341.4889      6.4944369     -2334.9944     -24792.509    
    194250   146.5419       292.21669     -2341.3574      6.3834632     -2334.9739     -22124.072    
    194300   140.79339      280.75369     -2341.1351      6.1330543     -2335.0021     -25554.425    
    194350   151.61057      302.32404     -2341.5957      6.6042579     -2334.9914     -23472.729    
    194400   148.97481      297.06812     -2341.4047      6.4894424     -2334.9152     -23065.615    
    194450   155.73336      310.54522     -2341.6146      6.7838494     -2334.8307     -22020.896    
    194500   152.49586      304.08938     -2341.5215      6.6428217     -2334.8787     -24594.219    
    194550   145.46822      290.07569     -2341.2803      6.3366932     -2334.9436     -24863        
    194600   160.3472       319.74559     -2341.9184      6.9848311     -2334.9336     -24007.756    
    194650   155.39616      309.87281     -2341.7335      6.7691606     -2334.9643     -26233.339    
    194700   143.87652      286.90171     -2341.1886      6.2673576     -2334.9212     -25460.125    
    194750   152.52056      304.13863     -2341.5497      6.6438977     -2334.9058     -26264.267    
    194800   152.94422      304.98345     -2341.4791      6.6623526     -2334.8167     -22612.466    
    194850   141.69645      282.55447     -2341.0167      6.1723923     -2334.8443     -23508.646    
    194900   145.10362      289.34863     -2341.1726      6.3208106     -2334.8518     -25722.855    
    194950   155.0789       309.24017     -2341.6649      6.7553406     -2334.9095     -23999.762    
    195000   156.88394      312.83958     -2341.7346      6.8339694     -2334.9006     -22917.967    
    195050   136.82853      272.84743     -2340.8212      5.9603424     -2334.8609     -24426.4      
    195100   156.16627      311.40849     -2341.6602      6.8027074     -2334.8575     -25774.808    
    195150   149.28654      297.68972     -2341.3799      6.5030215     -2334.8768     -25217.122    
    195200   157.63433      314.33592     -2341.7172      6.8666571     -2334.8505     -22442.846    
    195250   169.33889      337.67577     -2342.2859      7.3765152     -2334.9094     -22844.913    
    195300   166.45043      331.91594     -2342.1883      7.250692      -2334.9376     -24017.607    
    195350   149.94377      299.0003      -2341.4624      6.531651      -2334.9307     -22718.868    
    195400   157.37199      313.81279     -2341.6351      6.8552293     -2334.7799     -20215.424    
    195450   144.28555      287.71734     -2341.0857      6.2851751     -2334.8005     -20575.051    
    195500   154.38038      307.84727     -2341.5464      6.7249127     -2334.8215     -24392.518    
    195550   147.17556      293.48025     -2341.2378      6.4110657     -2334.8267     -21400.338    
    195600   146.86436      292.85971     -2341.2262      6.3975099     -2334.8287     -23142.992    
    195650   150.63865      300.38594     -2341.3108      6.5619202     -2334.7489     -23532.142    
    195700   146.99231      293.11484     -2341.2704      6.4030833     -2334.8674     -20360.538    
    195750   157.35137      313.77166     -2341.7358      6.8543308     -2334.8815     -22077.718    
    195800   156.9857       313.04248     -2341.7081      6.8384019     -2334.8697     -22467.281    
    195850   165.06725      329.15777     -2342.1258      7.1904398     -2334.9354     -21047.063    
    195900   155.33944      309.75971     -2341.6391      6.7666899     -2334.8724     -21169.185    
    195950   160.69093      320.43102     -2341.7952      6.9998043     -2334.7954     -21632.617    
    196000   150.69363      300.49558     -2341.4602      6.5643153     -2334.8958     -25062.463    
    196050   143.25683      285.66598     -2341.0565      6.2403632     -2334.8161     -23354.308    
    196100   153.57336      306.23801     -2341.4858      6.6897584     -2334.7961     -21907.308    
    196150   156.33104      311.73705     -2341.6398      6.8098848     -2334.8299     -25904.219    
    196200   156.68628      312.44543     -2341.724       6.8253593     -2334.8987     -21223.347    
    196250   157.39269      313.85406     -2341.6794      6.8561307     -2334.8232     -25000.091    
    196300   152.06347      303.22715     -2341.3913      6.6239864     -2334.7673     -24335.12     
    196350   161.17605      321.39839     -2341.8372      7.0209364     -2334.8162     -23988.625    
    196400   152.89091      304.87713     -2341.4652      6.6600301     -2334.8052     -22921.352    
    196450   147.59295      294.31257     -2341.2416      6.4292477     -2334.8124     -24282.006    
    196500   151.00469      301.11586     -2341.3966      6.5778653     -2334.8187     -23796.503    
    196550   155.59387      310.26706     -2341.6305      6.777773      -2334.8527     -27023.797    
    196600   153.72216      306.53472     -2341.5482      6.6962401     -2334.852      -22441.227    
    196650   154.29803      307.68305     -2341.5554      6.7213254     -2334.8341     -25135.016    
    196700   151.96381      303.02842     -2341.5004      6.6196451     -2334.8807     -21999.851    
    196750   145.31103      289.76223     -2341.2016      6.3298457     -2334.8718     -22100.485    
    196800   153.54381      306.17908     -2341.5986      6.6884712     -2334.9101     -22616.766    
    196850   163.25508      325.54415     -2341.9071      7.1115004     -2334.7956     -20967.391    
    196900   147.30738      293.74311     -2341.2827      6.4168079     -2334.8659     -26402.62     
    196950   147.77282      294.67125     -2341.2052      6.4370829     -2334.7681     -20556.721    
    197000   147.41812      293.96395     -2341.2447      6.421632      -2334.8231     -24648.924    
    197050   157.08483      313.24017     -2341.6806      6.8427205     -2334.8379     -23459.458    
    197100   147.48178      294.09088     -2341.2705      6.4244048     -2334.8461     -21842.226    
    197150   152.19411      303.48767     -2341.4326      6.6296774     -2334.8029     -22115.629    
    197200   155.50675      310.09335     -2341.6032      6.7739782     -2334.8292     -24380.684    
    197250   154.45476      307.99559     -2341.5668      6.7281527     -2334.8387     -19534.285    
    197300   138.12251      275.42773     -2340.7824      6.016709      -2334.7657     -26495.629    
    197350   151.75005      302.60217     -2341.4912      6.6103337     -2334.8809     -20596.199    
    197400   157.45918      313.98665     -2341.6165      6.8590273     -2334.7575     -23437.777    
    197450   150.36564      299.84154     -2341.3705      6.5500277     -2334.8204     -24411.769    
    197500   145.54108      290.22096     -2341.1741      6.3398666     -2334.8342     -23400.046    
    197550   166.54602      332.10656     -2342.0591      7.2548559     -2334.8042     -24583.873    
    197600   151.43048      301.96492     -2341.4476      6.5964129     -2334.8512     -22339.697    
    197650   151.67841      302.45931     -2341.4078      6.6072129     -2334.8006     -21979.375    
    197700   148.73615      296.59221     -2341.3493      6.4790463     -2334.8703     -22818.777    
    197750   149.85571      298.8247      -2341.2626      6.5278149     -2334.7348     -23101.161    
    197800   148.9174       296.95364     -2341.1878      6.4869417     -2334.7008     -23388.612    
    197850   159.29529      317.64801     -2341.7062      6.9390096     -2334.7672     -23096.938    
    197900   147.59592      294.3185      -2341.2139      6.4293771     -2334.7845     -22819.388    
    197950   151.86829      302.83794     -2341.4172      6.6154841     -2334.8017     -25012.368    
    198000   161.5328       322.10979     -2341.85        7.036477      -2334.8135     -24484.91     
    198050   158.2738       315.61108     -2341.5935      6.8945128     -2334.699      -21975.153    
    198100   158.22989      315.5235      -2341.6214      6.8925997     -2334.7288     -23814.961    
    198150   151.41697      301.93798     -2341.3605      6.5958246     -2334.7647     -24568.26     
    198200   143.64882      286.44766     -2340.9907      6.2574389     -2334.7333     -25950.461    
    198250   147.88805      294.90102     -2341.1763      6.4421023     -2334.7342     -25643.587    
    198300   153.29673      305.68639     -2341.3374      6.6777083     -2334.6596     -22818.662    
    198350   157.02761      313.12606     -2341.5747      6.8402276     -2334.7344     -22786.238    
    198400   150.68067      300.46975     -2341.3392      6.563751      -2334.7754     -22944.791    
    198450   159.83568      318.72558     -2341.6174      6.9625489     -2334.6548     -21469.516    
    198500   166.67772      332.36918     -2341.9874      7.2605929     -2334.7269     -21508.331    
    198550   149.92149      298.95587     -2341.2455      6.5306803     -2334.7149     -20009.784    
    198600   143.70658      286.56283     -2341.0142      6.2599549     -2334.7542     -20522.89     
    198650   152.68461      304.46576     -2341.2248      6.6510438     -2334.5738     -23196.335    
    198700   157.05631      313.1833      -2341.4322      6.8414781     -2334.5907     -21375.834    
    198750   163.55699      326.14618     -2341.7678      7.1246517     -2334.6431     -23160.784    
    198800   154.17203      307.43179     -2341.3513      6.7158366     -2334.6354     -22641.324    
    198850   150.13777      299.38715     -2341.1645      6.5401016     -2334.6244     -23045.611    
    198900   161.00797      321.06322     -2341.6911      7.0136147     -2334.6775     -21977.704    
    198950   158.36693      315.79679     -2341.4886      6.8985696     -2334.59       -24228.287    
    199000   149.58172      298.27834     -2341.0776      6.5158797     -2334.5617     -21539.812    
    199050   156.43838      311.9511      -2341.356       6.8145606     -2334.5414     -21954.954    
    199100   164.44487      327.9167      -2341.6482      7.1633287     -2334.4848     -23347.632    
    199150   153.77787      306.64581     -2341.1874      6.6986668     -2334.4887     -18952.342    
    199200   162.12948      323.29962     -2341.6054      7.0624686     -2334.5429     -22306.447    
    199250   153.82302      306.73585     -2341.1311      6.7006337     -2334.4305     -19468.332    
    199300   147.4657       294.05882     -2340.8551      6.4237044     -2334.4314     -22438.706    
    199350   145.50853      290.15606     -2340.8225      6.3384487     -2334.4841     -23517.523    
    199400   146.98412      293.09851     -2340.8792      6.4027265     -2334.4765     -21083.495    
    199450   159.49742      318.05107     -2341.4797      6.9478144     -2334.5319     -21780.636    
    199500   145.767        290.67148     -2340.7974      6.3497082     -2334.4477     -22806.606    
    199550   151.27076      301.64643     -2340.9353      6.5894555     -2334.3458     -20252.214    
    199600   143.16466      285.48218     -2340.5984      6.2363481     -2334.3621     -22042.385    
    199650   157.22108      313.51185     -2341.2135      6.8486553     -2334.3649     -21905.08     
    199700   146.17528      291.48562     -2340.8526      6.3674929     -2334.4851     -23891.408    
    199750   161.80283      322.64825     -2341.4708      7.0482395     -2334.4225     -20907.082    
    199800   168.11467      335.23458     -2341.7877      7.3231875     -2334.4645     -25499.744    
    199850   145.05568      289.25303     -2340.7253      6.3187223     -2334.4066     -22597.726    
    199900   151.68197      302.46642     -2340.9483      6.6073681     -2334.3409     -23235.71     
    199950   145.89266      290.92206     -2340.7271      6.355182      -2334.3719     -22320.334    
    200000   147.30324      293.73485     -2340.8093      6.4166275     -2334.3927     -23816.648    
colvars: Saving collective variables state to "out.colvars.state".
Loop time of 973.616 on 4 procs for 200000 steps with 338 atoms

Performance: 8.874 ns/day, 2.704 hours/ns, 205.420 timesteps/s, 69.432 katom-step/s
140.1% CPU use with 4 MPI tasks x 1 OpenMP threads

MPI task timing breakdown:
Section |  min time  |  avg time  |  max time  |%varavg| %total
---------------------------------------------------------------
Pair    | 783.11     | 851.18     | 921.08     | 207.4 | 87.42
Neigh   | 0.15467    | 1.8407     | 3.1986     |  83.5 |  0.19
Comm    | 12.851     | 76.208     | 132.48     | 624.2 |  7.83
Output  | 4.3654     | 7.0923     | 10.094     | 101.0 |  0.73
Modify  | 25.498     | 32.713     | 49.158     | 167.9 |  3.36
Other   |            | 4.579      |            |       |  0.47

Nlocal:           84.5 ave         123 max           8 min
Histogram: 1 0 0 0 0 0 0 1 1 1
Nghost:           1132 ave        1639 max         647 min
Histogram: 1 0 0 0 1 1 0 0 0 1
Neighs:              0 ave           0 max           0 min
Histogram: 4 0 0 0 0 0 0 0 0 0
FullNghs:      15153.5 ave       24886 max         839 min
Histogram: 1 0 0 0 0 1 0 0 1 1

Total # of neighbors = 60614
Ave neighs/atom = 179.33136
Neighbor list builds = 3194
Dangerous builds = 0
write_data final.data
System init for write_data ...
Generated 0 of 6 mixed pair_coeff terms from geometric mixing rule

CITE-CITE-CITE-CITE-CITE-CITE-CITE-CITE-CITE-CITE-CITE-CITE-CITE

Your simulation uses code contributions which should be cited:

- Colvars module (Fiorin2013, plus other works listed for specific features)


% Colvars module:
% Colvars-LAMMPS interface:
% Metadynamics colvar bias implementation:
% Optimal rotation via flexible fitting:
% coordNum colvar component:

@article{Fiorin2013,
  author = {Fiorin, Giacomo and Klein, Michael L.{} and H\'enin, J\'er\^ome},
  title = {Using collective variables to drive molecular dynamics simulations},
  journal = {Mol. Phys.},
  year = {2013},
  volume = {111},
  number = {22-23},
  pages = {3345--3362},
  publisher = {Taylor & Francis},
  doi = {10.1080/00268976.2013.813594},
  url = {https://doi.org/10.1080/00268976.2013.813594}
}


% LAMMPS engine:

@article{Thompson2022,
  title = {{LAMMPS} - a flexible simulation tool for particle-based materials modeling at the atomic, meso, and continuum scales},
  author = {Thompson, Aidan P. and Aktulga, H. Metin and Berger, Richard and Bolintineanu, Dan S. and Brown, W. Michael and Crozier, Paul S. and {in't Veld}, Pieter J. and Kohlmeyer, Axel and Moore, Stan G. and Nguyen, Trung Dac and Shan, Ray and Stevens, Mark J. and Tranchida, Julien and Trott, Christian and Plimpton, Steven J.},
  journal = {Comp. Phys. Comm.},
  volume = {271},
  pages = {108171},
  year = {2022},
  doi = {10.1016/j.cpc.2021.108171},
  url = {https://doi.org/10.1016/j.cpc.2021.108171}
}

CITE-CITE-CITE-CITE-CITE-CITE-CITE-CITE-CITE-CITE-CITE-CITE-CITE

Total wall time: 0:16:54
