LAMMPS (2 Aug 2023)
OMP_NUM_THREADS environment is not set. Defaulting to 1 thread. (src/comm.cpp:98)
  using 1 OpenMP thread(s) per MPI task
Loaded 1 plugins from /work/home/baoergen22b/apprepo/deepmd/v2.2.9-dtk23.10/app/lib/deepmd_lmp
package gpu 4
# system
units        metal
dimension    3
atom_style   atomic
boundary     p p f

# 设置原子映射
atom_modify map array

# initial stucture
read_data POSCAR.lmp
Reading data file ...
  orthogonal box = (0 0 0) to (11.328 12.015 32)
  1 by 1 by 4 MPI processor grid
  reading atoms ...
  338 atoms
  read_data CPU = 0.122 seconds
mass      1 55.845
mass      2 15.999
mass      3 1.008
mass      4  35.450

# potential
pair_style deepmd graph-compress.pb
Summary of lammps deepmd module ...
  >>> Info of deepmd-kit:
  installed to:       /work/home/wys974137909/shangcheng/deepmd-kit/20240715/deepmd-kit_v2.2.9/install
  source:             v2.2.9
  source branch:      HEAD
  source commit:      be43748
  source commit at:   2024-02-04 13:44:12 +0800
  support model ver.: 1.1 
  build variant:      rocm
  build with tf inc:  /work/home/wys974137909/shangcheng/miniconda3/envs/deepmd-kit-v2.2.9/lib/python3.8/site-packages/tensorflow/include;/work/home/wys974137909/shangcheng/miniconda3/envs/deepmd-kit-v2.2.9/lib/python3.8/site-packages/tensorflow/include
  build with tf lib:  /work/home/wys974137909/shangcheng/miniconda3/envs/deepmd-kit-v2.2.9/lib/python3.8/site-packages/tensorflow/lib/libtensorflow_cc.so
  set tf intra_op_parallelism_threads: 0
  set tf inter_op_parallelism_threads: 0
  >>> Info of lammps module:
  use deepmd-kit at:  /work/home/wys974137909/shangcheng/deepmd-kit/20240715/deepmd-kit_v2.2.9/install
  source:             v2.2.9
  source branch:      HEAD
  source commit:      be43748
  source commit at:   2024-02-04 13:44:12 +0800
  build float prec:   double
  build with tf inc:  /work/home/wys974137909/shangcheng/miniconda3/envs/deepmd-kit-v2.2.9/lib/python3.8/site-packages/tensorflow/include;/work/home/wys974137909/shangcheng/miniconda3/envs/deepmd-kit-v2.2.9/lib/python3.8/site-packages/tensorflow/include
  build with tf lib:  /work/home/wys974137909/shangcheng/miniconda3/envs/deepmd-kit-v2.2.9/lib/python3.8/site-packages/tensorflow/lib/libtensorflow_cc.so
pair_coeff * *

# 固定原子受力、速度为 0
group fixed id 1:168
168 atoms in group fixed
group mobile subtract all fixed
170 atoms in group mobile
fix freeze_fixed fixed setforce 0.0 0.0 0.0
velocity fixed set 0 0 0

# 在z=27处添加硬性反射墙
fix wall1 mobile wall/reflect zhi 27

# 计算mobile组的温度
compute mTemp mobile temp
thermo 50
thermo_style custom step temp c_mTemp pe ke etotal press
velocity mobile  create 298.15 12345 mom yes rot yes

#fix ensemble mobile  nvt temp 298.15 298.15 1
#timestep 0.0005
#run 15000
#unfix ensemble        # 结束预平衡的NVT

fix ensemble mobile  nvt temp 298.15 298.15 0.5
fix meta  all colvars pmf.in tstat ensemble
timestep 0.0005
dump trace all custom 10 md.lammpstrj id type x y z
run 200000

CITE-CITE-CITE-CITE-CITE-CITE-CITE-CITE-CITE-CITE-CITE-CITE-CITE

Your simulation uses code contributions which should be cited:

- GPU package (short-range, long-range and three-body potentials): doi:10.1016/j.cpc.2010.12.021, doi:10.1016/j.cpc.2011.10.012, doi:10.1016/j.cpc.2013.08.002, doi:10.1016/j.commatsci.2014.10.068, doi:10.1016/j.cpc.2016.10.020, doi:10.3233/APC200086

@Article{Brown11,
 author = {W. M. Brown and P. Wang and S. J. Plimpton and A. N. Tharrington},
 title = {Implementing Molecular Dynamics on Hybrid High Performance Computers---Short Range Forces},
 journal = {Comput.\ Phys.\ Commun.},
 year =    2011,
 volume =  182,
 pages =   {898--911},
 doi =     {10.1016/j.cpc.2010.12.021}
}

@Article{Brown12,
 author = {W. M. Brown and A. Kohlmeyer and S. J. Plimpton and A. N. Tharrington},
 title = {Implementing Molecular Dynamics on Hybrid High Performance Computers - Particle-Particle Particle-Mesh},
 journal = {Comput.\ Phys.\ Commun.},
 year =    2012,
 volume =  183,
 doi =     {10.1016/j.cpc.2011.10.012},
 pages =   {449--459}
}

@Article{Brown13,
 author = {W. M. Brown and Y. Masako},
 title = {Implementing Molecular Dynamics on Hybrid High Performance Computers---Three-Body Potentials},
 journal = {Comput.\ Phys.\ Commun.},
 year =    2013,
 volume =  184,
 pages =   {2785--2793},
 doi =     {10.1016/j.cpc.2013.08.002},
}

@Article{Trung15,
 author = {T. D. Nguyen and S. J. Plimpton},
 title = {Accelerating Dissipative Particle Dynamics Simulations for Soft Matter Systems},
 journal = {Comput.\ Mater.\ Sci.},
 year =    2015,
 doi =     {10.1016/j.commatsci.2014.10.068},
 volume =  100,
 pages =   {173--180}
}

@Article{Trung17,
 author = {T. D. Nguyen},
 title = {{GPU}-Accelerated {T}ersoff Potentials for Massively Parallel
    Molecular Dynamics Simulations},
 journal = {Comput.\ Phys.\ Commun.},
 year =    2017,
 doi =     {10.1016/j.cpc.2016.10.020},
 volume =  212,
 pages =   {113--122}
}

@inproceedings{Nikolskiy19,
 author = {V. Nikolskiy and V. Stegailov},
 title = {{GPU} Acceleration of Four-Site Water Models in {LAMMPS}},
 booktitle = {Proceedings of the International Conference on Parallel
    Computing (ParCo 2019), Prague, Czech Republic},
 doi =     {10.3233/APC200086},
 year =    2019
}

- USER-DEEPMD package:

@article{Wang_ComputPhysCommun_2018_v228_p178,
  author = {Wang, Han and Zhang, Linfeng and Han, Jiequn and E, Weinan},
  doi = {10.1016/j.cpc.2018.03.016},
  url = {https://doi.org/10.1016/j.cpc.2018.03.016},
  year = 2018,
  month = {jul},
  publisher = {Elsevier {BV}},
  volume = 228,
  journal = {Comput. Phys. Commun.},
  title = {{DeePMD-kit: A deep learning package for many-body potential energy representation and molecular dynamics}},
  pages = {178--184}
}
@misc{Zeng_JChemPhys_2023_v159_p054801,
  title  = {{DeePMD-kit v2: A software package for deep potential models}},
  author =   {Jinzhe Zeng and Duo Zhang and Denghui Lu and Pinghui Mo and Zeyu Li
         and Yixiao Chen and Mari{\'a}n Rynik and Li'ang Huang and Ziyao Li and 
         Shaochen Shi and Yingze Wang and Haotian Ye and Ping Tuo and Jiabin
         Yang and Ye Ding and Yifan Li and Davide Tisi and Qiyu Zeng and Han 
         Bao and Yu Xia and Jiameng Huang and Koki Muraoka and Yibo Wang and 
         Junhan Chang and Fengbo Yuan and Sigbj{\o}rn L{\o}land Bore and Chun
         Cai and Yinnian Lin and Bo Wang and Jiayan Xu and Jia-Xin Zhu and 
         Chenxing Luo and Yuzhi Zhang and Rhys E A Goodall and Wenshuo Liang
         and Anurag Kumar Singh and Sikai Yao and Jingchao Zhang and Renata
         Wentzcovitch and Jiequn Han and Jie Liu and Weile Jia and Darrin M
         York and Weinan E and Roberto Car and Linfeng Zhang and Han Wang},
  journal =  {J. Chem. Phys.},
  volume =   159,
  issue =    5,  
  year =    2023,
  pages  =   054801,
  doi =      {10.1063/5.0155600},
}

CITE-CITE-CITE-CITE-CITE-CITE-CITE-CITE-CITE-CITE-CITE-CITE-CITE

Generated 0 of 6 mixed pair_coeff terms from geometric mixing rule
Neighbor list info ...
  update: every = 1 steps, delay = 0 steps, check = yes
  max neighbors/atom: 2000, page size: 100000
  master list distance cutoff = 8
  ghost atom cutoff = 8
  binsize = 4, bins = 3 4 8
  1 neighbor lists, perpetual/occasional/extra = 1 0 0
  (1) pair deepmd, perpetual
      attributes: full, newton on
      pair build: full/bin/atomonly
      stencil: full/bin/3d
      bin: standard
colvars: Creating proxy instance
colvars: ----------------------------------------------------------------------
colvars: Initializing the collective variables module, version 2023-05-01.
colvars: Please cite Fiorin et al, Mol Phys 2013:
colvars:   https://doi.org/10.1080/00268976.2013.813594
colvars: as well as all other papers listed below for individual features used.
colvars: This version was built with the C++11 standard or higher.
colvars: Using LAMMPS interface, version "2023-04-12".
colvars: ----------------------------------------------------------------------
colvars: Reading new configuration from file "pmf.in":
colvars: # units = "" [default]
colvars: # smp = on [default]
colvars: # colvarsTrajFrequency = 100 [default]
colvars: # colvarsRestartFrequency = 0 [default]
colvars: # scriptedColvarForces = off [default]
colvars: # scriptingAfterBiases = off [default]
colvars: ----------------------------------------------------------------------
colvars:   Initializing a new collective variable.
colvars:   # name = "cn_H_Fe"
colvars:   Initializing a new "coordNum" component.
colvars:     # name = "" [default]
colvars:     # componentCoeff = 1 [default]
colvars:     # componentExp = 1 [default]
colvars:     # period = 0 [default]
colvars:     # wrapAround = 0 [default]
colvars:     # forceNoPBC = off [default]
colvars:     # scalable = on [default]
colvars:       Initializing atom group "group1".
colvars:       # name = "" [default]
colvars:       # centerToOrigin = off [default]
colvars:       # centerToReference = off [default]
colvars:       # rotateToReference = off [default]
colvars:       # atomsOfGroup = "" [default]
colvars:       # indexGroup = "" [default]
colvars:       # psfSegID =  [default]
colvars:       # atomsFile = "" [default]
colvars:       # dummyAtom = ( 0 , 0 , 0 ) [default]
colvars:       # enableFitGradients = on [default]
colvars:       # printAtomIDs = off [default]
colvars:       Atom group "group1" defined with 1 atoms requested.
colvars:       Initializing atom group "group2".
colvars:       # name = "" [default]
colvars:       # centerToOrigin = off [default]
colvars:       # centerToReference = off [default]
colvars:       # rotateToReference = off [default]
colvars:       # atomsOfGroup = "" [default]
colvars:       # indexGroup = "" [default]
colvars:       # psfSegID =  [default]
colvars:       # atomsFile = "" [default]
colvars:       # dummyAtom = ( 0 , 0 , 0 ) [default]
colvars:       # enableFitGradients = on [default]
colvars:       # printAtomIDs = off [default]
colvars:       Atom group "group2" defined with 168 atoms requested.
colvars:     # cutoff = 2.5
colvars:     # cutoff3 = ( 4 , 4 , 4 ) [default]
colvars:     # expNumer = 6 [default]
colvars:     # expDenom = 12 [default]
colvars:     # group2CenterOnly = off [default]
colvars:     # tolerance = 0 [default]
colvars:   All components initialized.
colvars:   # timeStepFactor = 1 [default]
colvars:   # width = 0.1
colvars:   # lowerBoundary = 0
colvars:   # upperBoundary = 6
colvars:   # hardLowerBoundary = on
colvars:   # hardUpperBoundary = off [default]
colvars:   # expandBoundaries = off [default]
colvars:   # extendedLagrangian = off [default]
colvars:   # outputValue = on [default]
colvars:   # outputVelocity = off [default]
colvars:   # outputTotalForce = off [default]
colvars:   # outputAppliedForce = off [default]
colvars:   # subtractAppliedForce = off [default]
colvars:   # runAve = off [default]
colvars:   # corrFunc = off [default]
colvars: ----------------------------------------------------------------------
colvars:   Initializing a new collective variable.
colvars:   # name = "cn_H_O"
colvars:   Initializing a new "coordNum" component.
colvars:     # name = "" [default]
colvars:     # componentCoeff = 1 [default]
colvars:     # componentExp = 1 [default]
colvars:     # period = 0 [default]
colvars:     # wrapAround = 0 [default]
colvars:     # forceNoPBC = off [default]
colvars:     # scalable = on [default]
colvars:       Initializing atom group "group1".
colvars:       # name = "" [default]
colvars:       # centerToOrigin = off [default]
colvars:       # centerToReference = off [default]
colvars:       # rotateToReference = off [default]
colvars:       # atomsOfGroup = "" [default]
colvars:       # indexGroup = "" [default]
colvars:       # psfSegID =  [default]
colvars:       # atomsFile = "" [default]
colvars:       # dummyAtom = ( 0 , 0 , 0 ) [default]
colvars:       # enableFitGradients = on [default]
colvars:       # printAtomIDs = off [default]
colvars:       Atom group "group1" defined with 1 atoms requested.
colvars:       Initializing atom group "group2".
colvars:       # name = "" [default]
colvars:       # centerToOrigin = off [default]
colvars:       # centerToReference = off [default]
colvars:       # rotateToReference = off [default]
colvars:       # atomsOfGroup = "" [default]
colvars:       # indexGroup = "" [default]
colvars:       # psfSegID =  [default]
colvars:       # atomsFile = "" [default]
colvars:       # dummyAtom = ( 0 , 0 , 0 ) [default]
colvars:       # enableFitGradients = on [default]
colvars:       # printAtomIDs = off [default]
colvars:       Atom group "group2" defined with 56 atoms requested.
colvars:     # cutoff = 2.5
colvars:     # cutoff3 = ( 4 , 4 , 4 ) [default]
colvars:     # expNumer = 6 [default]
colvars:     # expDenom = 12 [default]
colvars:     # group2CenterOnly = off [default]
colvars:     # tolerance = 0 [default]
colvars:   All components initialized.
colvars:   # timeStepFactor = 1 [default]
colvars:   # width = 0.1
colvars:   # lowerBoundary = 0
colvars:   # upperBoundary = 7
colvars:   # hardLowerBoundary = off [default]
colvars:   # hardUpperBoundary = off [default]
colvars:   # expandBoundaries = off [default]
colvars:   # extendedLagrangian = off [default]
colvars:   # outputValue = on [default]
colvars:   # outputVelocity = off [default]
colvars:   # outputTotalForce = off [default]
colvars:   # outputAppliedForce = off [default]
colvars:   # subtractAppliedForce = off [default]
colvars:   # runAve = off [default]
colvars:   # corrFunc = off [default]
colvars: ----------------------------------------------------------------------
colvars: Collective variables initialized, 2 in total.
colvars: ----------------------------------------------------------------------
colvars:   Initializing a new "metadynamics" instance.
colvars:   # name = "meta2d"
colvars:   # colvars = { cn_H_Fe, cn_H_O }
colvars:   # stepZeroData = off [default]
colvars:   # outputEnergy = off [default]
colvars:   # outputFreq = 0 [default]
colvars:   # timeStepFactor = 1 [default]
colvars:   # writeTISamples = off [default]
colvars:   # writeTIPMF = off [default]
colvars:   # hillWeight = 0.08
colvars:   # newHillFrequency = 500
colvars:   # gaussianSigmas =  [default]
colvars:   # hillWidth = 1
colvars:   Half-widths of the Gaussian hills (sigma's):
colvars:   cn_H_Fe: 0.05
colvars:   cn_H_O: 0.05
colvars:   # multipleReplicas = off [default]
colvars:   # useGrids = on [default]
colvars:   # gridsUpdateFrequency = 500 [default]
colvars:   # rebinGrids = off [default]
colvars:   # writeFreeEnergyFile = on [default]
colvars:   # keepHills = off [default]
colvars:   # keepFreeEnergyFiles = off [default]
colvars:   # writeHillsTrajectory = off [default]
colvars:   # wellTempered = off [default]
colvars:   # biasTemperature = 400
colvars:   # ebMeta = off [default]
colvars: ----------------------------------------------------------------------
colvars: Collective variables biases initialized, 1 in total.
colvars: ----------------------------------------------------------------------
colvars: Collective variables module (re)initialized.
colvars: ----------------------------------------------------------------------
colvars: Re-initialized atom group for variable "cn_H_Fe":0/0. 1 atoms: total mass = 1.008, total charge = 1.63042e-322.
colvars: Re-initialized atom group for variable "cn_H_Fe":0/1. 168 atoms: total mass = 9381.96, total charge = 0.618659.
colvars: Re-initialized atom group for variable "cn_H_O":0/0. 1 atoms: total mass = 1.008, total charge = 1.63042e-322.
colvars: Re-initialized atom group for variable "cn_H_O":0/1. 56 atoms: total mass = 895.944, total charge = 2.27826e-76.
colvars: The restart output state file will be "rest.colvars.state".
colvars: The final output state file will be "out.colvars.state".
Per MPI rank memory allocation (min/avg/max) = 3.135 | 3.162 | 3.178 Mbytes
   Step          Temp         c_mTemp         PotEng         KinEng         TotEng         Press     
         0   149.51736      298.15        -2331.7924      6.5130762     -2325.2793     -15708.466    
        50   144.93761      289.0176      -2331.5886      6.3135792     -2325.275      -12540.075    
       100   138.42512      276.03115     -2331.2992      6.0298907     -2325.2693     -16555.603    
       150   141.66033      282.48243     -2331.4387      6.1708187     -2325.2679     -15068.362    
       200   135.03753      269.27602     -2331.1432      5.882325      -2325.2609     -17518.912    
       250   147.64049      294.40737     -2331.6903      6.4313186     -2325.259      -13225.352    
       300   146.70378      292.53949     -2331.6402      6.3905147     -2325.2497     -14711.885    
       350   142.41928      283.99585     -2331.4434      6.2038792     -2325.2395     -14283.754    
       400   140.88191      280.9302      -2331.3661      6.1369102     -2325.2292     -15840.074    
       450   141.99867      283.15711     -2331.4042      6.185557      -2325.2187     -14656.15     
       500   148.28732      295.6972      -2331.6532      6.4594949     -2325.1938     -14439.706    
       550   141.54823      282.25889     -2331.2538      6.1659354     -2325.0879     -15376.207    
       600   149.83167      298.77676     -2331.6199      6.5267677     -2325.0931     -14915.521    
       650   139.54373      278.26176     -2331.1485      6.0786183     -2325.0699     -14502.55     
       700   141.25365      281.67147     -2331.2046      6.1531034     -2325.0515     -13541.186    
       750   152.20207      303.50354     -2331.6586      6.6300241     -2325.0286     -14470.411    
       800   144.81489      288.77289     -2331.2929      6.3082336     -2324.9847     -17567.524    
       850   145.92286      290.98227     -2331.2834      6.3564973     -2324.927      -13826.157    
       900   150.87508      300.85741     -2331.48        6.5722194     -2324.9078     -13464.593    
       950   135.71635      270.62965     -2330.7843      5.9118951     -2324.8724     -16609.138    
      1000   158.19671      315.45735     -2331.7466      6.8911546     -2324.8555     -13867.314    
      1050   144.43986      288.02504     -2331.1143      6.2918968     -2324.8224     -13884.609    
      1100   159.89871      318.85127     -2331.7389      6.9652948     -2324.7736     -14124.338    
      1150   171.5999       342.18441     -2332.2578      7.4750063     -2324.7828     -15510.872    
      1200   168.03264      335.071       -2332.0617      7.319614      -2324.7421     -14320.952    
      1250   158.04968      315.16416     -2331.5642      6.8847498     -2324.6795     -14941.575    
      1300   162.77621      324.58925     -2331.7356      7.0906406     -2324.645      -13758.719    
      1350   177.60092      354.15094     -2332.3639      7.7364148     -2324.6275     -15283.877    
      1400   163.71215      326.45558     -2331.725       7.1314106     -2324.5936     -13185.832    
      1450   167.01821      333.04815     -2331.8495      7.275425      -2324.5741     -15053.591    
      1500   171.1938       341.37462     -2332.0089      7.4573165     -2324.5516     -13898.648    
      1550   158.73818      316.53708     -2331.4035      6.9147413     -2324.4887     -17223.428    
      1600   161.48469      322.01386     -2331.4834      7.0343813     -2324.449      -14895.219    
      1650   164.59586      328.21778     -2331.6043      7.1699058     -2324.4344     -14740.929    
      1700   161.53927      322.12269     -2331.4572      7.0367588     -2324.4204     -15233.232    
      1750   160.79376      320.63607     -2331.4389      7.0042836     -2324.4346     -15301.015    
      1800   161.2797       321.60509     -2331.3984      7.0254517     -2324.373      -16216.072    
      1850   157.37775      313.82426     -2331.2429      6.8554799     -2324.3874     -13349.627    
      1900   149.66363      298.44168     -2330.8684      6.5194479     -2324.3489     -12151.956    
      1950   171.40915      341.80404     -2331.7796      7.4666972     -2324.3129     -11775.162    
      2000   150.62645      300.36163     -2330.7997      6.5613891     -2324.2383     -16225.418    
      2050   153.52555      306.14266     -2330.8883      6.6876756     -2324.2006     -13905.231    
      2100   180.69453      360.31987     -2331.963       7.8711748     -2324.0919     -12906.928    
      2150   162.84168      324.7198      -2331.1959      7.0934925     -2324.1024     -11806.457    
      2200   155.19073      309.46317     -2330.842       6.7602119     -2324.0818     -13298.35     
      2250   154.31466      307.71622     -2330.8836      6.7220499     -2324.1615     -13982.292    
      2300   159.19652      317.45104     -2331.0514      6.9347068     -2324.1167     -15868.155    
      2350   156.4328       311.93996     -2330.9203      6.8143173     -2324.106      -13390.023    
      2400   160.32081      319.69297     -2331.1033      6.9836816     -2324.1196     -12167.185    
      2450   144.62044      288.38515     -2330.4376      6.2997633     -2324.1379     -13882.604    
      2500   151.27104      301.64699     -2330.7505      6.5894677     -2324.1611     -11646.669    
      2550   150.3797       299.86958     -2330.6744      6.5506403     -2324.1238     -11954.91     
      2600   153.70569      306.50188     -2330.8053      6.6955227     -2324.1098     -14824.249    
      2650   168.69774      336.39728     -2331.483       7.3485865     -2324.1344     -11749.937    
      2700   162.35028      323.7399      -2331.2003      7.0720866     -2324.1283     -13201.869    
      2750   162.47261      323.98385     -2331.2233      7.0774158     -2324.1458     -12010.806    
      2800   167.05513      333.12176     -2331.4472      7.2770331     -2324.1702     -16087.728    
      2850   158.1599       315.38393     -2331.1077      6.8895509     -2324.2181     -11073.922    
      2900   162.76079      324.5585      -2331.3707      7.089969      -2324.2807     -14185.414    
      2950   147.43928      294.00614     -2330.7198      6.4225537     -2324.2972     -12006.372    
      3000   161.73391      322.51082     -2331.3766      7.0452373     -2324.3314     -13381.405    
      3050   167.9971       335.00013     -2331.8475      7.3180659     -2324.5295     -16222.045    
      3100   171.70037      342.38476     -2331.9446      7.4793828     -2324.4652     -15635.696    
      3150   160.05816      319.16923     -2331.5477      6.9722405     -2324.5755     -13159.305    
      3200   160.8031       320.65469     -2331.6359      7.0046904     -2324.6312     -14503.117    
      3250   159.42165      317.89998     -2331.7081      6.9445138     -2324.7636     -14406.486    
      3300   160.28649      319.62455     -2331.842       6.9821869     -2324.8598     -12951.973    
      3350   153.88346      306.85636     -2331.6291      6.7032662     -2324.9258     -13883.462    
      3400   152.91957      304.9343      -2331.661       6.6612789     -2324.9998     -16188.221    
      3450   157.14805      313.36623     -2331.9042      6.8454742     -2325.0588     -12626.353    
      3500   168.96978      336.93974     -2332.5184      7.3604366     -2325.158      -15247.511    
      3550   149.14539      297.40827     -2331.4991      6.496873      -2325.0022     -12941.934    
      3600   166.40359      331.82254     -2332.2957      7.2486516     -2325.047      -14546.788    
      3650   153.75335      306.59692     -2331.8104      6.6975989     -2325.1128     -13918.066    
      3700   157.01731      313.10553     -2332.0106      6.8397792     -2325.1708     -12613.988    
      3750   163.32815      325.68986     -2332.3648      7.1146834     -2325.2501     -11614.131    
      3800   167.26396      333.53819     -2332.5637      7.2861299     -2325.2775     -13325.623    
      3850   147.0048       293.13975     -2331.7181      6.4036275     -2325.3145     -13864.706    
      3900   167.70587      334.41941     -2332.6805      7.3053801     -2325.3751     -10969.613    
      3950   159.50391      318.06401     -2332.2839      6.9480969     -2325.3358     -11884.957    
      4000   178.49754      355.93889     -2333.1366      7.7754724     -2325.3611     -10027.785    
      4050   158.62961      316.32058     -2332.2704      6.9100117     -2325.3604     -14986.422    
      4100   146.9137       292.95808     -2331.7885      6.3996589     -2325.3889     -11567.71     
      4150   150.276        299.6628      -2331.984       6.5461231     -2325.4379     -14379.843    
      4200   157.04389      313.15853     -2332.3256      6.8409371     -2325.4846     -13641.469    
      4250   147.88138      294.88771     -2331.9591      6.4418116     -2325.5173     -13326.905    
      4300   158.76392      316.58841     -2332.5407      6.9158626     -2325.6248     -11635.387    
      4350   159.56459      318.18502     -2332.6907      6.9507404     -2325.74       -12831.766    
      4400   162.95284      324.94147     -2332.8216      7.0983349     -2325.7232     -14002.983    
      4450   159.50917      318.0745      -2332.7632      6.9483261     -2325.8149     -13270.918    
      4500   157.18884      313.44756     -2332.7401      6.8472509     -2325.8929     -16671.298    
      4550   153.09377      305.28167     -2332.4233      6.6688672     -2325.7545     -13134.042    
      4600   144.86998      288.88274     -2332.0934      6.3106332     -2325.7828     -14522.374    
      4650   156.89121      312.85407     -2332.6651      6.8342862     -2325.8308     -12380.549    
      4700   151.53121      302.16579     -2332.5109      6.600801      -2325.9101     -15038.948    
      4750   153.73592      306.56217     -2332.683       6.6968397     -2325.9862     -14137.022    
      4800   159.38727      317.83142     -2332.9528      6.9430161     -2326.0097     -14805.307    
      4850   155.22385      309.52922     -2332.8115      6.7616547     -2326.0498     -15337.201    
      4900   142.13678      283.43251     -2332.2824      6.191573      -2326.0908     -15860.86     
      4950   140.93824      281.04252     -2332.263       6.1393639     -2326.1236     -14496.033    
      5000   143.9875       287.123       -2332.4196      6.2721917     -2326.1474     -15372.861    
      5050   142.88411      284.92275     -2332.4609      6.2241275     -2326.2367     -16067.282    
      5100   151.35235      301.80911     -2332.7357      6.5930094     -2326.1427     -13781.246    
      5150   152.5313       304.16005     -2332.9068      6.6443654     -2326.2624     -13575.619    
      5200   143.40632      285.96409     -2332.5944      6.2468753     -2326.3475     -14849.189    
      5250   156.77257      312.61749     -2333.1627      6.829118      -2326.3335     -15873.488    
      5300   144.25555      287.65752     -2332.6368      6.2838684     -2326.3529     -12093.676    
      5350   149.59812      298.31105     -2332.8948      6.5165942     -2326.3782     -16139.125    
      5400   141.01034      281.1863      -2332.5588      6.1425047     -2326.4163     -12309.295    
      5450   137.03404      273.25722     -2332.3964      5.9692943     -2326.4271     -14464.907    
      5500   148.45568      296.03292     -2332.9192      6.4668287     -2326.4524     -15388.759    
      5550   136.26934      271.73235     -2332.3468      5.9359834     -2326.4108     -15297.633    
      5600   137.56827      274.32253     -2332.4311      5.992566      -2326.4385     -15315.946    
      5650   147.83279      294.79083     -2332.9089      6.4396953     -2326.4692     -16398.93     
      5700   142.31456      283.78703     -2332.6767      6.1993176     -2326.4774     -13407.319    
      5750   147.42393      293.97553     -2332.9239      6.4218851     -2326.502      -16117.759    
      5800   151.54028      302.18388     -2333.084       6.601196      -2326.4828     -13885.008    
      5850   149.18487      297.48699     -2332.9942      6.4985928     -2326.4956     -15171.842    
      5900   151.93708      302.97513     -2333.1381      6.6184809     -2326.5196     -15848.926    
      5950   143.62267      286.3955      -2332.7768      6.2562996     -2326.5205     -14184.885    
      6000   148.527        296.17513     -2332.9166      6.4699353     -2326.4466     -15763.561    
      6050   149.16975      297.45684     -2332.9329      6.4979341     -2326.4349     -13484.537    
      6100   142.89782      284.9501      -2332.7127      6.2247248     -2326.488      -14872.625    
      6150   133.50658      266.22317     -2332.3757      5.8156358     -2326.56       -15103.915    
      6200   149.74131      298.59658     -2332.9509      6.5228316     -2326.4281     -13767.188    
      6250   148.31998      295.76233     -2332.6467      6.4609175     -2326.1857     -16262.445    
      6300   144.6579       288.45984     -2332.4998      6.3013949     -2326.1984     -14800.62     
      6350   149.38311      297.88229     -2332.7287      6.507228      -2326.2215     -15475.409    
      6400   145.98558      291.10735     -2332.5015      6.3592297     -2326.1423     -14042.503    
      6450   153.70852      306.50752     -2332.8695      6.6956458     -2326.1738     -15192.083    
      6500   142.97606      285.1061      -2332.4831      6.2281326     -2326.255      -16887.932    
      6550   139.54672      278.26772     -2332.2837      6.0787485     -2326.2049     -13044.551    
      6600   159.24585      317.54942     -2333.1051      6.9368559     -2326.1682     -13194.137    
      6650   157.71085      314.48851     -2333.0671      6.8699902     -2326.1971     -11785.398    
      6700   153.29352      305.67998     -2332.9064      6.6775683     -2326.2289     -15270.331    
      6750   142.74838      284.65209     -2332.3223      6.2182148     -2326.1041     -13009.354    
      6800   166.61661      332.24733     -2333.376       7.2579311     -2326.1181     -13647.675    
      6850   154.62686      308.33877     -2332.8386      6.7356495     -2326.1029     -13683.936    
      6900   151.98783      303.07631     -2332.767       6.6206913     -2326.1463     -14805.563    
      6950   154.42725      307.94074     -2332.9765      6.7269545     -2326.2495     -13916.538    
      7000   143.34935      285.85049     -2332.4698      6.2443937     -2326.2254     -12972.448    
      7050   147.74456      294.6149      -2332.6153      6.4358519     -2326.1794     -14967.204    
      7100   160.62163      320.29283     -2333.1309      6.9967855     -2326.1342     -14710.332    
      7150   151.08706      301.28011     -2332.7527      6.5814534     -2326.1712     -14499.298    
      7200   169.08434      337.16819     -2333.5698      7.3654271     -2326.2044     -13860.307    
      7250   150.49756      300.1046      -2332.8356      6.5557743     -2326.2798     -16844.929    
      7300   159.37977      317.81647     -2333.2733      6.9426895     -2326.3306     -17505.959    
      7350   154.0976       307.28338     -2333.0485      6.7125946     -2326.3359     -14958.483    
      7400   160.63797      320.32543     -2333.4414      6.9974976     -2326.4439     -14967.685    
      7450   153.68097      306.45258     -2333.1209      6.6944457     -2326.4264     -14710.456    
      7500   150.59996      300.30879     -2333.0494      6.5602349     -2326.4891     -15628.033    
      7550   141.93893      283.03799     -2332.6542      6.1829548     -2326.4713     -14596.602    
      7600   142.22192      283.6023      -2332.6338      6.1952821     -2326.4385     -15851.05     
      7650   142.53972      284.236       -2332.5667      6.2091253     -2326.3576     -15084.527    
      7700   163.53725      326.10683     -2333.4676      7.1237921     -2326.3438     -14587.234    
      7750   153.34433      305.78129     -2333.0513      6.6797815     -2326.3716     -16530.51     
      7800   162.23255      323.50514     -2333.4534      7.0669582     -2326.3864     -16679.205    
      7850   148.20703      295.53709     -2332.8807      6.4559973     -2326.4247     -15549.034    
      7900   145.36198      289.86383     -2332.7849      6.332065      -2326.4529     -12334.798    
      7950   149.23594      297.58883     -2332.9841      6.5008173     -2326.4833     -14392.452    
      8000   145.50038      290.13982     -2332.9115      6.338094      -2326.5734     -15755.178    
      8050   131.63849      262.49805     -2332.4001      5.7342605     -2326.6658     -16436.321    
      8100   131.58308      262.38756     -2332.3666      5.731847      -2326.6348     -15639.275    
      8150   145.88332      290.90343     -2332.9428      6.354775      -2326.5881     -14185.03     
      8200   145.4162       289.97195     -2332.8735      6.334427      -2326.5391     -13791.514    
      8250   136.59875      272.38923     -2332.3778      5.950333      -2326.4274     -15112.18     
      8300   150.76514      300.63818     -2333.0771      6.5674303     -2326.5097     -14434.963    
      8350   140.48255      280.13384     -2332.5956      6.1195139     -2326.4761     -14721.022    
      8400   158.23838      315.54045     -2333.3007      6.8929699     -2326.4077     -13217.871    
      8450   157.47256      314.01334     -2333.3051      6.8596102     -2326.4455     -15315.239    
      8500   140.7356       280.63844     -2332.5515      6.1305368     -2326.4209     -17172.417    
      8550   138.77497      276.7288      -2332.3381      6.0451307     -2326.2929     -15009.507    
      8600   146.47678      292.08684     -2332.4716      6.3806267     -2326.091      -14934.911    
      8650   160.94689      320.94143     -2333.0661      7.0109541     -2326.0551     -15954.521    
      8700   133.50578      266.22159     -2331.8346      5.8156012     -2326.019      -18235.012    
      8750   146.05408      291.24393     -2332.4486      6.3622132     -2326.0864     -11403.659    
      8800   153.89744      306.88425     -2332.855       6.7038756     -2326.1511     -15906.746    
      8850   150.23031      299.57168     -2332.8369      6.5441326     -2326.2927     -14867.701    
      8900   152.43484      303.9677      -2332.9577      6.6401637     -2326.3176     -15257.669    
      8950   154.16425      307.41628     -2332.9598      6.7154977     -2326.2443     -13841.343    
      9000   160.68682      320.42284     -2333.2245      6.9996255     -2326.2248     -16565.973    
      9050   153.25351      305.60019     -2332.8145      6.6758253     -2326.1387     -13619.125    
      9100   164.73772      328.50065     -2333.295       7.1760851     -2326.1189     -16812.87     
      9150   155.0644       309.21126     -2332.7455      6.7547091     -2325.9908     -11590.398    
      9200   154.33326      307.7533      -2332.7348      6.72286       -2326.0119     -14588.51     
      9250   159.24005      317.53785     -2333.1269      6.9366031     -2326.1903     -14481.509    
      9300   165.02892      329.08134     -2333.3951      7.1887701     -2326.2063     -14258.363    
      9350   153.57465      306.24057     -2332.9073      6.6898144     -2326.2175     -13605.334    
      9400   134.0301       267.26712     -2331.8881      5.8384408     -2326.0496     -13787.886    
      9450   144.5354       288.21556     -2332.2564      6.2960586     -2325.9603     -11466.99     
      9500   158.90155      316.86285     -2332.9302      6.9218576     -2326.0084     -18780.409    
      9550   155.98719      311.05137     -2332.8163      6.7949062     -2326.0213     -15645.16     
      9600   155.38368      309.84793     -2332.7902      6.768617      -2326.0216     -13145.624    
      9650   156.08072      311.23789     -2332.8173      6.7989807     -2326.0183     -15797.145    
      9700   157.32447      313.71803     -2332.8944      6.8531593     -2326.0413     -15435.743    
      9750   156.38674      311.84811     -2332.8473      6.812311      -2326.0349     -15104.366    
      9800   160.05889      319.17069     -2333.0218      6.9722724     -2326.0495     -14269.911    
      9850   148.93106      296.98087     -2332.5632      6.4875366     -2326.0757     -14836.977    
      9900   142.4026       283.96257     -2332.3011      6.2031524     -2326.098      -15942.289    
      9950   150.24615      299.60327     -2332.6636      6.5448228     -2326.1188     -14509.837    
     10000   149.89281      298.89868     -2332.6598      6.5294311     -2326.1304     -12929.841    
     10050   147.41403      293.95579     -2332.5438      6.4214538     -2326.1224     -15976.744    
     10100   158.94146      316.94243     -2333.0663      6.9235961     -2326.1427     -16115.723    
     10150   151.11794      301.3417      -2332.7413      6.5827987     -2326.1585     -15023.859    
     10200   159.06838      317.19553     -2333.0923      6.9291251     -2326.1632     -16155.496    
     10250   148.48999      296.10135     -2332.5978      6.4683234     -2326.1295     -16848.417    
     10300   140.3616       279.89265     -2332.2686      6.114245      -2326.1543     -14073.993    
     10350   151.81514      302.73197     -2332.6482      6.6131692     -2326.0351     -13103.698    
     10400   158.33448      315.73206     -2332.8739      6.8971556     -2325.9767     -16079.128    
     10450   152.18761      303.4747      -2332.6431      6.6293941     -2326.0137     -15370.335    
     10500   163.01477      325.06496     -2333.214       7.1010325     -2326.113      -15887.772    
     10550   155.29976      309.68059     -2332.5885      6.7649615     -2325.8236     -15022.143    
     10600   162.79317      324.62306     -2332.7753      7.0913792     -2325.6839     -14894.828    
     10650   174.74616      348.45833     -2333.2848      7.6120598     -2325.6728     -13354.646    
     10700   154.00108      307.09091     -2332.099       6.7083901     -2325.3906     -15436.087    
     10750   150.67585      300.46012     -2332.2163      6.5635407     -2325.6528     -15038.011    
     10800   147.33875      293.80568     -2332.1173      6.4181746     -2325.6991     -16065.007    
     10850   165.87605      330.77058     -2332.9573      7.2256716     -2325.7316     -13912.533    
     10900   151.34783      301.80012     -2332.355       6.5928128     -2325.7622     -13206.586    
     10950   156.20086      311.47746     -2332.5707      6.8042141     -2325.7665     -13144.081    
     11000   159.40043      317.85766     -2332.7829      6.9435894     -2325.8393     -12856.529    
     11050   163.76016      326.55133     -2332.9112      7.1335023     -2325.7777     -15065.905    
     11100   155.82441      310.72679     -2332.5862      6.7878156     -2325.7984     -16250.415    
     11150   152.32333      303.74534     -2332.4705      6.6353061     -2325.8352     -14326.033    
     11200   159.64198      318.33933     -2332.808       6.9541113     -2325.8539     -11786.52     
     11250   156.06238      311.20131     -2332.7183      6.7981815     -2325.9201     -15872.596    
     11300   150.61738      300.34354     -2332.496       6.5609939     -2325.9351     -13523.504    
     11350   149.26699      297.65074     -2332.48        6.5021699     -2325.9778     -15935.442    
     11400   165.39753      329.81638     -2333.2174      7.2048271     -2326.0125     -12828.074    
     11450   151.95909      303.01901     -2332.708       6.6194395     -2326.0885     -12297.184    
     11500   160.11454      319.28165     -2332.9691      6.9746963     -2325.9944     -15920.568    
     11550   170.0033       339.00066     -2333.3508      7.4054573     -2325.9454     -12947.513    
     11600   163.89495      326.82011     -2333.0599      7.1393736     -2325.9205     -14098.196    
     11650   151.99163      303.0839      -2332.5612      6.620857      -2325.9403     -15544.698    
     11700   153.00069      305.09604     -2332.6415      6.6648122     -2325.9767     -13899.574    
     11750   173.49003      345.95349     -2333.5419      7.5573417     -2325.9846     -16075.291    
     11800   148.81234      296.74413     -2332.3725      6.4823651     -2325.8901     -15640.483    
     11850   161.54272      322.12956     -2332.967       7.0369088     -2325.9301     -13110.043    
     11900   172.62719      344.23292     -2333.4819      7.519756      -2325.9621     -13876.284    
     11950   156.32254      311.72008     -2332.5817      6.8095142     -2325.7721     -15669.519    
     12000   169.17741      337.35377     -2333.1621      7.3694811     -2325.7926     -15902.847    
     12050   167.83877      334.68442     -2333.1109      7.3111693     -2325.7997     -14104.211    
     12100   181.54273      362.01125     -2333.6799      7.908123      -2325.7717     -15046.692    
     12150   157.0725       313.21558     -2332.6731      6.8421832     -2325.8309     -12966.039    
     12200   159.26409      317.58579     -2332.7973      6.9376504     -2325.8596     -16124.455    
     12250   160.90927      320.86642     -2332.8472      7.0093156     -2325.8379     -13770.621    
     12300   184.8172       368.54081     -2333.9217      8.0507609     -2325.8709     -15271.872    
     12350   182.46964      363.85957     -2333.7996      7.9484994     -2325.8511     -13819.677    
     12400   164.57736      328.18089     -2333.1677      7.1690999     -2325.9986     -12148.632    
     12450   176.85735      352.6682      -2333.6659      7.7040244     -2325.9619     -12732.432    
     12500   162.39259      323.82428     -2333.0912      7.0739299     -2326.0172     -16929.805    
     12550   168.39048      335.78457     -2333.2621      7.3352019     -2325.9269     -15189.284    
     12600   148.48748      296.09633     -2332.3767      6.4682138     -2325.9085     -11542.564    
     12650   163.45721      325.94722     -2332.9899      7.1203055     -2325.8696     -17962.392    
     12700   163.37823      325.78973     -2332.9382      7.1168652     -2325.8213     -14749.611    
     12750   159.58404      318.2238      -2332.9081      6.9515877     -2325.9566     -15069.528    
     12800   168.21676      335.43816     -2333.1437      7.3276348     -2325.816      -12033.316    
     12850   141.42222      282.00762     -2331.9731      6.1604465     -2325.8126     -16631.307    
     12900   166.98705      332.98601     -2333.3389      7.2740676     -2326.0649     -15411.682    
     12950   166.05719      331.1318      -2333.3283      7.2335623     -2326.0947     -12665.447    
     13000   164.63702      328.29987     -2333.2261      7.1716989     -2326.0544     -16390.716    
     13050   150.65525      300.41906     -2332.6588      6.5626436     -2326.0961     -15540.389    
     13100   155.83941      310.7567      -2332.9088      6.7884691     -2326.1203     -16103.914    
     13150   166.57348      332.16131     -2333.5905      7.2560521     -2326.3344     -15335.464    
     13200   153.7702       306.63052     -2332.776       6.6983327     -2326.0777     -14103.421    
     13250   159.95377      318.96107     -2333.0739      6.9676933     -2326.1062     -12927.445    
     13300   150.21769      299.54653     -2332.6975      6.5435832     -2326.1539     -13837.67     
     13350   165.57619      330.17263     -2333.4477      7.2126094     -2326.2351     -16146.369    
     13400   164.96913      328.96211     -2333.5532      7.1861657     -2326.367      -12125.767    
     13450   171.46506      341.91554     -2333.8577      7.4691328     -2326.3885     -14620.709    
     13500   153.29387      305.68068     -2333.1525      6.6775837     -2326.4749     -14717.868    
     13550   165.66525      330.35024     -2333.735       7.2164892     -2326.5185     -12474.484    
     13600   180.42766      359.7877      -2334.4236      7.8595496     -2326.564      -12494.162    
     13650   167.17453      333.35986     -2333.7532      7.2822342     -2326.471      -13108.905    
     13700   161.137        321.32052     -2333.5047      7.0192354     -2326.4855     -12234.984    
     13750   162.44505      323.92888     -2333.4972      7.0762149     -2326.421      -12189.234    
     13800   140.63577      280.43939     -2332.4845      6.1261884     -2326.3583     -14287.419    
     13850   163.43265      325.89824     -2333.5397      7.1192356     -2326.4205     -11951.747    
     13900   160.39727      319.84544     -2333.3565      6.9870123     -2326.3695     -14000.08     
     13950   158.79923      316.65883     -2333.0559      6.9174008     -2326.1385     -11621.809    
     14000   184.82068      368.54774     -2334.0977      8.0509123     -2326.0468     -14362.913    
     14050   164.76205      328.54918     -2332.8915      7.1771452     -2325.7144     -12687.536    
     14100   183.74687      366.40649     -2333.6532      8.0041368     -2325.6491     -13496.804    
     14150   173.91196      346.79485     -2333.5381      7.5757212     -2325.9624     -12838.501    
     14200   162.80197      324.64062     -2333.1493      7.0917628     -2326.0575     -12176.227    
     14250   161.37982      321.80474     -2333.2838      7.0298131     -2326.254      -14041.542    
     14300   147.60025      294.32712     -2332.8084      6.4295655     -2326.3789     -12388.794    
     14350   151.41313      301.93033     -2333.0486      6.5956574     -2326.453      -15098.875    
     14400   144.9645       289.07121     -2332.8039      6.3147504     -2326.4891     -12859.52     
     14450   159.73329      318.52141     -2333.4893      6.958089      -2326.5312     -15899.19     
     14500   164.72471      328.47471     -2333.7812      7.1755184     -2326.6057     -13861.926    
     14550   144.20287      287.55248     -2332.7613      6.2815736     -2326.4797     -14238.922    
     14600   156.17333      311.42256     -2333.2961      6.8030147     -2326.4931     -11554.738    
     14650   162.13967      323.31993     -2333.6993      7.0629124     -2326.6364     -15028.728    
     14700   172.46745      343.91438     -2334.0756      7.5127974     -2326.5628     -12742.799    
     14750   152.30121      303.70123     -2333.2358      6.6343425     -2326.6015     -13337.428    
     14800   164.99937      329.02242     -2333.8689      7.187483      -2326.6814     -14482.867    
     14850   168.07735      335.16017     -2334.0452      7.3215619     -2326.7236     -12910.226    
     14900   156.11135      311.29896     -2333.5799      6.8003147     -2326.7796     -13967.54     
     14950   161.19697      321.44012     -2333.8881      7.021848      -2326.8663     -11989.063    
     15000   153.60735      306.30578     -2333.6178      6.6912388     -2326.9266     -15360.068    
     15050   146.25316      291.64091     -2333.3058      6.3708853     -2326.9349     -15984.478    
     15100   148.17095      295.46515     -2333.45        6.4544257     -2326.9956     -12948.079    
     15150   140.31921      279.80813     -2333.1418      6.1123987     -2327.0294     -14711.373    
     15200   154.03637      307.16128     -2333.7398      6.7099272     -2327.0299     -16640.585    
     15250   151.85388      302.80922     -2333.6745      6.6148567     -2327.0597     -16295.585    
     15300   156.90926      312.89006     -2333.9462      6.8350723     -2327.1111     -14353.546    
     15350   142.5488       284.25412     -2333.3433      6.2095213     -2327.1338     -15762.293    
     15400   146.34938      291.8328      -2333.5232      6.3750771     -2327.1481     -13385.136    
     15450   127.3957       254.03758     -2332.6732      5.5494419     -2327.1237     -15840.041    
     15500   154.07229      307.2329      -2333.824       6.7114919     -2327.1125     -13559.385    
     15550   147.45137      294.03025     -2333.5033      6.4230804     -2327.0802     -13204.34     
     15600   144.79391      288.73104     -2333.5068      6.3073194     -2327.1994     -13018.241    
     15650   157.23462      313.53886     -2334.0397      6.8492453     -2327.1905     -13083.191    
     15700   162.37611      323.79141     -2334.2919      7.0732118     -2327.2187     -13502.833    
     15750   150.41615      299.94226     -2333.5879      6.5522279     -2327.0357     -12280.541    
     15800   154.3063       307.69955     -2333.584       6.7216858     -2326.8623     -14248.422    
     15850   153.21926      305.5319      -2333.7136      6.6743336     -2327.0393     -14081.608    
     15900   166.5682       332.15078     -2334.3008      7.255822      -2327.045      -14202.005    
     15950   144.61406      288.37241     -2333.4163      6.299485      -2327.1168     -15963.388    
     16000   141.32056      281.8049      -2333.4195      6.1560181     -2327.2635     -12680.532    
     16050   149.25523      297.6273      -2333.7752      6.5016577     -2327.2735     -16751.955    
     16100   158.39719      315.85712     -2334.2664      6.8998876     -2327.3665     -14439.519    
     16150   152.28749      303.67388     -2333.9047      6.6337451     -2327.271      -13485.464    
     16200   164.9161       328.85636     -2334.6432      7.1838554     -2327.4593     -13617.225    
     16250   148.13541      295.39428     -2333.9087      6.4528775     -2327.4558     -14234.786    
     16300   152.8009       304.69765     -2334.1557      6.6561094     -2327.4996     -15681.269    
     16350   155.69251      310.46376     -2334.3393      6.7820699     -2327.5572     -11000.275    
     16400   146.86031      292.85163     -2334.0514      6.3973334     -2327.654      -12085.628    
     16450   144.00778      287.16344     -2333.9154      6.2730751     -2327.6424     -15858.003    
     16500   147.89575      294.91639     -2334.2042      6.442438      -2327.7617     -10375.215    
     16550   143.6204       286.39099     -2333.849       6.2562009     -2327.5928     -12641.749    
     16600   140.54881      280.26597     -2333.7327      6.1224002     -2327.6103     -15005.935    
     16650   144.78081      288.70492     -2333.956       6.3067487     -2327.6493     -16683.278    
     16700   141.8706       282.90172     -2333.8907      6.1799781     -2327.7107     -13884.448    
     16750   154.32346      307.73377     -2334.4174      6.7224333     -2327.695      -13322.534    
     16800   157.33402      313.73707     -2334.5654      6.8535752     -2327.7118     -13415.345    
     16850   152.72518      304.54666     -2334.3002      6.652811      -2327.6474     -11839.314    
     16900   156.21924      311.51411     -2334.5283      6.8050146     -2327.7233     -15181.439    
     16950   157.95554      314.97643     -2334.5789      6.8806489     -2327.6982     -13602.14     
     17000   149.87144      298.85608     -2334.1555      6.5285004     -2327.627      -13012.43     
     17050   160.66681      320.38293     -2334.6269      6.9987537     -2327.6281     -14824.995    
     17100   154.64816      308.38124     -2334.4221      6.7365772     -2327.6856     -13779.775    
     17150   150.17999      299.47135     -2334.1389      6.541941      -2327.5969     -15898.365    
     17200   160.34638      319.74396     -2334.6462      6.9847954     -2327.6614     -14234.604    
     17250   159.66766      318.39054     -2334.5709      6.95523       -2327.6156     -12560.231    
     17300   143.19996      285.55258     -2333.8765      6.237886      -2327.6387     -17427.861    
     17350   145.542        290.22281     -2334.0222      6.3399071     -2327.6823     -16645.002    
     17400   147.45557      294.03862     -2334.1708      6.4232631     -2327.7475     -10874.457    
     17450   139.83711      278.84677     -2333.9093      6.0913979     -2327.8179     -17085.783    
     17500   139.3636       277.90256     -2333.9019      6.0707716     -2327.8312     -12722.107    
     17550   146.82257      292.77637     -2334.2233      6.3956893     -2327.8276     -12464.042    
     17600   150.84297      300.79338     -2334.4193      6.5708207     -2327.8485     -14892.443    
     17650   159.64393      318.34323     -2334.8639      6.9541966     -2327.9097     -15635.736    
     17700   160.09546      319.24361     -2334.6782      6.9738654     -2327.7044     -16210.812    
     17750   144.01059      287.16904     -2334.0931      6.2731975     -2327.8199     -14279.473    
     17800   141.82458      282.80996     -2334.0247      6.1779734     -2327.8468     -13075.312    
     17850   141.15434      281.47345     -2334.0121      6.1487775     -2327.8633     -15513.61     
     17900   145.3466       289.83316     -2334.2239      6.3313951     -2327.8925     -14814.537    
     17950   143.58946      286.32927     -2334.1639      6.2548527     -2327.9091     -13169.337    
     18000   152.75526      304.60664     -2334.6237      6.6541212     -2327.9696     -13685.362    
     18050   143.55565      286.26186     -2334.1977      6.2533801     -2327.9443     -15803.497    
     18100   147.16901      293.4672      -2334.2929      6.4107806     -2327.8821     -13510.591    
     18150   141.25441      281.673       -2334.03        6.1531366     -2327.8769     -11207.78     
     18200   151.081        301.26804     -2334.4845      6.5811896     -2327.9033     -12856.446    
     18250   147.38021      293.88834     -2334.3552      6.4199804     -2327.9352     -12897.993    
     18300   151.81587      302.73342     -2334.6401      6.6132009     -2328.0269     -13823.769    
     18350   150.47653      300.06267     -2334.5976      6.5548584     -2328.0428     -12850.512    
     18400   145.24553      289.63161     -2334.4237      6.3269922     -2328.0967     -14525.845    
     18450   160.56975      320.18939     -2334.996       6.9945258     -2328.0015     -12446.194    
     18500   140.0627       279.29663     -2334.1711      6.101225      -2328.0699     -12370.134    
     18550   138.91295      277.00393     -2334.2947      6.051141      -2328.2436     -14467.228    
     18600   136.06249      271.31987     -2334.1395      5.9269729     -2328.2126     -14857.106    
     18650   154.93834      308.95988     -2334.9763      6.7492176     -2328.2271     -14701.794    
     18700   140.32465      279.81898     -2334.3512      6.1126358     -2328.2386     -12545.655    
     18750   139.64907      278.47182     -2334.2808      6.083207      -2328.1976     -14948.788    
     18800   134.70375      268.61043     -2334.0944      5.8677853     -2328.2266     -14281.733    
     18850   143.08425      285.32184     -2334.4376      6.2328456     -2328.2048     -12674.038    
     18900   143.56795      286.28639     -2334.5         6.253916      -2328.2461     -14794.625    
     18950   138.39429      275.96969     -2334.11        6.028548      -2328.0815     -13669.997    
     19000   148.36836      295.8588      -2334.4524      6.463025      -2327.9894     -13116.472    
     19050   149.64029      298.39514     -2334.4594      6.5184312     -2327.941      -12374.27     
     19100   165.6139       330.24784     -2334.662       7.2142524     -2327.4477     -13835.335    
     19150   145.8474       290.8318      -2333.9058      6.3532104     -2327.5525     -15447.597    
     19200   139.68704      278.54753     -2333.7208      6.0848609     -2327.636      -16052.483    
     19250   150.33049      299.77144     -2334.1014      6.5484966     -2327.5529     -12684.586    
     19300   144.50114      288.14724     -2333.8526      6.2945663     -2327.558      -11204.857    
     19350   142.98296      285.11987     -2333.5744      6.2284334     -2327.3459     -12806.125    
     19400   170.8646       340.71816     -2334.8932      7.4429761     -2327.4502     -11897.212    
     19450   163.46075      325.95428     -2334.5399      7.1204596     -2327.4195     -16083.32     
     19500   163.69236      326.41612     -2334.6323      7.1305485     -2327.5017     -10242.658    
     19550   149.14525      297.40798     -2333.9922      6.4968669     -2327.4953     -13419.617    
     19600   149.22406      297.56515     -2333.9774      6.5003        -2327.4771     -11931.802    
     19650   156.34263      311.76015     -2334.3047      6.8103895     -2327.4943     -11999.303    
     19700   143.44617      286.04354     -2333.7693      6.2486109     -2327.5207     -12817.629    
     19750   148.82302      296.76543     -2334.0548      6.4828303     -2327.5719     -14449.221    
     19800   164.21897      327.46623     -2334.8496      7.1534882     -2327.6961     -14229.773    
     19850   161.28205      321.60978     -2335.1214      7.0255541     -2328.0959     -13294.457    
     19900   156.02838      311.13352     -2334.7985      6.7967007     -2328.0018     -12194.102    
     19950   147.19392      293.51687     -2334.474       6.4118657     -2328.0621     -12224.02     
     20000   146.52391      292.18081     -2334.3908      6.3826795     -2328.0081     -11820.793    
     20050   135.07648      269.35369     -2334.0712      5.8840217     -2328.1871     -15616.898    
     20100   144.11492      287.37709     -2334.5434      6.2777423     -2328.2656     -14364.725    
     20150   142.43629      284.02976     -2334.5357      6.2046201     -2328.3311     -12018.536    
     20200   138.60509      276.39003     -2334.4098      6.0377304     -2328.3721     -15685.489    
     20250   140.32984      279.82934     -2334.5569      6.1128619     -2328.444      -14377.291    
     20300   134.62965      268.46267     -2334.3581      5.8645575     -2328.4936     -14678.945    
     20350   150.55827      300.22567     -2335.0921      6.558419      -2328.5337     -12852.067    
     20400   156.93275      312.93691     -2335.4375      6.8360957     -2328.6014     -12861.379    
     20450   139.90972      278.99157     -2334.735       6.0945609     -2328.6404     -11175.772    
     20500   138.97073      277.11914     -2334.7315      6.0536578     -2328.6779     -13610.162    
     20550   143.56412      286.27875     -2334.7529      6.2537492     -2328.4992     -15129.54     
     20600   132.25904      263.73549     -2334.316       5.7612924     -2328.5547     -15551.614    
     20650   141.6004       282.36292     -2334.7481      6.1682079     -2328.5799     -13058.578    
     20700   131.31504      261.85306     -2334.2377      5.7201708     -2328.5175     -14269.959    
     20750   131.46879      262.15966     -2334.2711      5.7268685     -2328.5443     -15006.171    
     20800   147.54735      294.22164     -2334.9295      6.4272613     -2328.5022     -15314.563    
     20850   145.10785      289.35707     -2334.8454      6.3209949     -2328.5244     -12776.155    
     20900   148.05805      295.24002     -2334.8874      6.4495079     -2328.4379     -15489.666    
     20950   143.99327      287.13452     -2334.6953      6.2724433     -2328.4229     -15778.043    
     21000   152.51431      304.12617     -2335.124       6.6436254     -2328.4804     -13095.986    
     21050   142.46815      284.09328     -2334.5881      6.2060077     -2328.3821     -15043.877    
     21100   145.31937      289.77886     -2334.7974      6.3302089     -2328.4672     -12322.038    
     21150   144.20801      287.56272     -2334.8469      6.2817975     -2328.5651     -12483.711    
     21200   142.76788      284.69099     -2334.77        6.2190645     -2328.5509     -14287.329    
     21250   134.12501      267.45639     -2334.3086      5.8425754     -2328.466      -13383.3      
     21300   141.56375      282.28984     -2334.9007      6.1666116     -2328.7341     -15015.135    
     21350   140.57469      280.31758     -2334.8463      6.1235275     -2328.7227     -16753.299    
     21400   152.94616      304.98731     -2335.3746      6.6624371     -2328.7121     -12923.663    
     21450   151.31685      301.73834     -2335.3101      6.5914633     -2328.7187     -12047.019    
     21500   148.20158      295.52623     -2335.0695      6.45576       -2328.6138     -12938.664    
     21550   137.52792      274.24207     -2334.443       5.9908084     -2328.4521     -11607.174    
     21600   135.35372      269.90652     -2334.4938      5.8960984     -2328.5977     -14092.812    
     21650   139.09976      277.37645     -2334.4416      6.0592787     -2328.3823     -12731.283    
     21700   131.01153      261.24783     -2333.9752      5.7069497     -2328.2682     -13733.275    
     21750   138.24683      275.67563     -2334.2873      6.0221244     -2328.2652     -11094.923    
     21800   151.33864      301.78179     -2334.8077      6.5924125     -2328.2153     -13619.523    
     21850   146.9277       292.98601     -2334.6505      6.4002689     -2328.2502     -14083.937    
     21900   145.90577      290.94819     -2334.7254      6.3557528     -2328.3696     -14677.467    
     21950   152.90912      304.91345     -2334.9966      6.6608235     -2328.3358     -13319.204    
     22000   147.38362      293.89515     -2334.6024      6.4201292     -2328.1822     -13761.217    
     22050   149.83337      298.78016     -2334.3167      6.526842      -2327.7898     -12202.155    
     22100   155.44919      309.97857     -2334.4777      6.7714709     -2327.7063     -15046.127    
     22150   145.01682      289.17555     -2334.0059      6.3170295     -2327.6889     -11815.086    
     22200   146.24449      291.62362     -2334.1753      6.3705076     -2327.8048     -12070.505    
     22250   139.52197      278.21837     -2333.6144      6.0776704     -2327.5367     -14858.629    
     22300   148.76685      296.65343     -2333.9525      6.4803835     -2327.4721     -14772.495    
     22350   157.25327      313.57605     -2334.3625      6.8500576     -2327.5124     -14062.815    
     22400   166.96529      332.94262     -2334.8007      7.2731198     -2327.5276     -15694.733    
     22450   157.96007      314.98546     -2334.3194      6.8808462     -2327.4385     -14770.993    
     22500   162.3767       323.79259     -2334.5853      7.0732377     -2327.512      -14172.616    
     22550   145.78091      290.69921     -2333.8336      6.350314      -2327.4833     -15716.666    
     22600   156.95308      312.97744     -2334.307       6.8369811     -2327.47       -14532.697    
     22650   162.18396      323.40825     -2334.4975      7.0648417     -2327.4327     -15008.354    
     22700   146.72268      292.57717     -2333.771       6.391338      -2327.3796     -15223.556    
     22750   161.08232      321.2115      -2334.4471      7.0168538     -2327.4303     -16578.947    
     22800   154.58597      308.25723     -2334.0629      6.7338682     -2327.3291     -13524.4      
     22850   142.43669      284.03056     -2333.5601      6.2046374     -2327.3555     -16366.545    
     22900   153.14386      305.38154     -2333.5602      6.6710488     -2326.8892     -14516.78     
     22950   152.2718       303.64258     -2333.539       6.6330615     -2326.9059     -12486.773    
     23000   169.07652      337.15258     -2334.1665      7.3650861     -2326.8015     -11594.927    
     23050   163.20481      325.44391     -2333.8079      7.1093108     -2326.6986     -15081.211    
     23100   185.09344      369.09166     -2334.7777      8.0627941     -2326.7149     -10532.961    
     23150   159.82518      318.70464     -2333.4114      6.9620915     -2326.4493     -11862.155    
     23200   155.10906      309.30032     -2333.3493      6.7566546     -2326.5926     -12474.098    
     23250   171.22829      341.4434      -2333.8696      7.458819      -2326.4107     -14841.03     
     23300   171.15969      341.3066      -2333.8299      7.4558306     -2326.3741     -13272.751    
     23350   150.77261      300.65308     -2332.8554      6.5677559     -2326.2876     -12641.939    
     23400   173.52821      346.02962     -2333.8755      7.5590048     -2326.3165     -12194.259    
     23450   172.9334       344.84353     -2333.7735      7.5330947     -2326.2404     -12556.606    
     23500   171.2549       341.49647     -2333.726       7.4599782     -2326.266      -10942.228    
     23550   178.34253      355.62978     -2334.1142      7.7687199     -2326.3454     -11651.202    
     23600   178.84701      356.63575     -2333.886       7.7906953     -2326.0953     -11996.209    
     23650   180.87908      360.68788     -2334.0613      7.8792139     -2326.1821     -14184.956    
     23700   180.42332      359.77905     -2333.9079      7.8593607     -2326.0485     -11228        
     23750   177.79703      354.542       -2334.0002      7.7449574     -2326.2552     -11286.626    
     23800   166.77716      332.56747     -2333.6143      7.2649246     -2326.3494     -12444.457    
     23850   163.95148      326.93284     -2333.5767      7.1418362     -2326.4349     -12724.087    
     23900   181.39582      361.71829     -2334.3702      7.9017232     -2326.4684     -14688.02     
     23950   165.08395      329.19107     -2333.7256      7.1911673     -2326.5345     -13851.964    
     24000   166.0342       331.08594     -2333.8837      7.2325607     -2326.6511     -13644.428    
     24050   150.25355      299.61802     -2333.24        6.5451449     -2326.6948     -12856.039    
     24100   159.85663      318.76736     -2333.7263      6.9634616     -2326.7628     -12126.457    
     24150   160.64136      320.33217     -2333.8983      6.9976449     -2326.9007     -16525.308    
     24200   154.288        307.66305     -2333.7168      6.7208883     -2326.9959     -14120.195    
     24250   146.95036      293.0312      -2333.4233      6.4012561     -2327.022      -14884.964    
     24300   181.72594      362.37657     -2335.0784      7.9161033     -2327.1623     -12549.982    
     24350   141.0429       281.25123     -2333.3385      6.1439231     -2327.1946     -14864.571    
     24400   165.7729       330.56489     -2334.417       7.2211783     -2327.1958     -14436.74     
     24450   154.65865      308.40216     -2333.8768      6.7370341     -2327.1398     -14011.695    
     24500   155.45097      309.98212     -2333.9341      6.7715484     -2327.1626     -16747.802    
     24550   168.01059      335.02704     -2334.5401      7.3186537     -2327.2214     -15642.194    
     24600   176.54024      352.03586     -2335.0094      7.6902108     -2327.3192     -13365.071    
     24650   154.47058      308.02714     -2333.9655      6.7288419     -2327.2366     -14635.772    
     24700   179.26906      357.47735     -2335.1192      7.80908       -2327.3101     -15510.188    
     24750   160.00864      319.07049     -2334.3979      6.9700836     -2327.4278     -16840.718    
     24800   173.57638      346.12569     -2334.9144      7.5611034     -2327.3533     -11277.966    
     24850   165.08289      329.18896     -2334.7098      7.1911212     -2327.5187     -13154.885    
     24900   153.93174      306.95264     -2334.3332      6.7053695     -2327.6279     -15052.326    
     24950   146.23251      291.59974     -2334.1289      6.3699859     -2327.7589     -14539.016    
     25000   150.38838      299.88688     -2334.4395      6.5510183     -2327.8884     -13411.665    
     25050   153.99748      307.08373     -2334.5513      6.7082333     -2327.843      -16500.579    
     25100   158.30238      315.66807     -2334.7259      6.8957577     -2327.8301     -15234.641    
     25150   152.76604      304.62814     -2334.5908      6.6545908     -2327.9362     -14543.454    
     25200   165.18125      329.3851      -2335.159       7.1954059     -2327.9636     -15415.266    
     25250   160.54641      320.14284     -2334.9896      6.993509      -2327.9961     -15993.598    
     25300   145.24212      289.62481     -2334.2572      6.3268437     -2327.9303     -18134.777    
     25350   160.6538       320.35699     -2334.9542      6.998187      -2327.956      -13291.342    
     25400   147.79005      294.7056      -2334.3935      6.4378333     -2327.9557     -13128.615    
     25450   152.5608       304.21888     -2334.6048      6.6456506     -2327.9591     -16974.605    
     25500   160.27662      319.60486     -2334.893       6.9817568     -2327.9112     -16951.819    
     25550   158.00974      315.08451     -2334.7771      6.8830099     -2327.8941     -13400.312    
     25600   143.34853      285.84884     -2334.2116      6.2443577     -2327.9672     -13802.529    
     25650   136.57928      272.35039     -2333.9428      5.9494846     -2327.9933     -16549.762    
     25700   146.71444      292.56075     -2334.3407      6.3909792     -2327.9497     -15499.54     
     25750   151.93756      302.97608     -2334.4305      6.6185018     -2327.812      -14437.419    
     25800   138.04075      275.2647      -2333.9219      6.0131476     -2327.9087     -15501.681    
     25850   141.53902      282.24053     -2334.0204      6.1655343     -2327.8548     -15066.868    
     25900   152.05254      303.20537     -2334.5331      6.6235104     -2327.9096     -14619.935    
     25950   155.18291      309.44758     -2334.5497      6.7598715     -2327.7898     -13345.502    
     26000   166.96581      332.94365     -2335.27        7.2731422     -2327.9968     -16165.151    
     26050   157.12862      313.32748     -2334.8056      6.8446277     -2327.961      -14056.944    
     26100   157.42964      313.92775     -2334.931       6.8577405     -2328.0732     -16650.377    
     26150   164.58018      328.18652     -2335.1418      7.1692228     -2327.9726     -14020.143    
     26200   145.14248      289.42614     -2334.4247      6.3225037     -2328.1022     -13280.91     
     26250   156.04931      311.17525     -2334.8492      6.7976123     -2328.0516     -15509.219    
     26300   153.3468       305.78621     -2334.5183      6.679889      -2327.8384     -14540.619    
     26350   154.42197      307.9302      -2334.6838      6.7267243     -2327.9571     -14203.451    
     26400   157.52057      314.10906     -2334.6833      6.8617013     -2327.8216     -15958.896    
     26450   172.65426      344.2869      -2334.959       7.5209352     -2327.4381     -13636.859    
     26500   155.59737      310.27404     -2334.3489      6.7779253     -2327.571      -12419.158    
     26550   171.16331      341.31383     -2334.9129      7.4559884     -2327.4569     -11972.991    
     26600   151.59334      302.28967     -2334.0383      6.6035072     -2327.4348     -12136.69     
     26650   158.81165      316.68359     -2334.3688      6.9179417     -2327.4509     -15248.329    
     26700   166.65336      332.3206      -2334.6877      7.2595317     -2327.4282     -15029.043    
     26750   159.04015      317.13924     -2334.3996      6.9278954     -2327.4717     -17134.017    
     26800   147.4127       293.95314     -2334.038       6.4213958     -2327.6166     -14443.133    
     26850   170.43654      339.86457     -2335.1491      7.4243295     -2327.7248     -14221.896    
     26900   161.65232      322.34812     -2334.614       7.0416832     -2327.5723     -15687.983    
     26950   157.56494      314.19755     -2334.492       6.8636344     -2327.6283     -13927.319    
     27000   162.09528      323.23141     -2334.7415      7.0609787     -2327.6805     -15136.316    
     27050   158.81751      316.69528     -2334.6395      6.9181972     -2327.7213     -12836.405    
     27100   156.51954      312.11292     -2334.5101      6.8180957     -2327.692      -15568.88     
     27150   159.11978      317.29801     -2334.4436      6.9313639     -2327.5122     -15710.869    
     27200   145.22819      289.59704     -2333.8623      6.3262371     -2327.5361     -15473.406    
     27250   159.90258      318.85899     -2334.5849      6.9654633     -2327.6194     -13391.099    
     27300   153.79177      306.67353     -2334.4559      6.6992724     -2327.7566     -15794.244    
     27350   165.38592      329.79323     -2334.6426      7.2043214     -2327.4383     -11926.237    
     27400   152.03475      303.16988     -2334.0837      6.6227353     -2327.4609     -13388.691    
     27450   166.1476       331.31207     -2334.7508      7.2375005     -2327.5133     -13162.496    
     27500   145.1571       289.45529     -2333.7243      6.3231406     -2327.4012     -13287.329    
     27550   151.15178      301.40917     -2334.1018      6.5842727     -2327.5175     -14415.972    
     27600   169.15243      337.30396     -2334.7347      7.3683931     -2327.3664     -14120.148    
     27650   153.95027      306.9896      -2334.3284      6.7061769     -2327.6222     -13714.822    
     27700   147.42646      293.98058     -2333.7545      6.4219953     -2327.3325     -15122.526    
     27750   147.01307      293.15625     -2334.0874      6.4039878     -2327.6834     -16448.79     
     27800   176.22393      351.40512     -2335.4831      7.6764323     -2327.8066     -14298.804    
     27850   157.74878      314.56414     -2334.7292      6.8716424     -2327.8575     -14515.967    
     27900   161.05197      321.15098     -2334.8334      7.0155317     -2327.8179     -15938.077    
     27950   165.35928      329.7401      -2335.0645      7.2031608     -2327.8614     -12324.124    
     28000   165.80745      330.63379     -2335.1255      7.2226835     -2327.9028     -14350.119    
     28050   160.18781      319.42777     -2334.9445      6.9778882     -2327.9666     -16495.707    
     28100   171.86337      342.70979     -2335.149       7.4864832     -2327.6625     -13337.473    
     28150   172.23372      343.44832     -2335.1535      7.5026163     -2327.6509     -14334.132    
     28200   157.36291      313.79467     -2334.5488      6.8548334     -2327.694      -13602.698    
     28250   154.73342      308.55125     -2334.4756      6.7402912     -2327.7353     -13740.644    
     28300   147.84674      294.81865     -2334.0801      6.4403029     -2327.6398     -13974.146    
     28350   146.16272      291.46058     -2334.1839      6.3669459     -2327.8169     -13116.209    
     28400   160.83614      320.72058     -2334.8685      7.0061298     -2327.8624     -13919.712    
     28450   143.49755      286.14599     -2334.0151      6.2508491     -2327.7642     -16557.161    
     28500   165.53082      330.08216     -2334.9303      7.2106331     -2327.7197     -15307.615    
     28550   170.23588      339.46445     -2335.1212      7.4155888     -2327.7057     -18357.627    
     28600   178.14894      355.24374     -2335.4156      7.760287      -2327.6553     -14109.465    
     28650   155.27628      309.63376     -2334.2815      6.7639384     -2327.5175     -14168.019    
     28700   157.89193      314.84959     -2334.376       6.877878      -2327.4981     -11672        
     28750   141.46331      282.08956     -2333.6927      6.1622364     -2327.5304     -14296.509    
     28800   144.58903      288.32249     -2334.0362      6.2983947     -2327.7378     -15422.758    
     28850   149.91167      298.93629     -2334.2626      6.5302526     -2327.7324     -19358.383    
     28900   156.2342       311.54394     -2334.5305      6.8056663     -2327.7249     -13606.483    
     28950   137.00645      273.20221     -2333.7019      5.9680927     -2327.7339     -13523.462    
     29000   153.55733      306.20603     -2334.5343      6.6890599     -2327.8452     -15922.8      
     29050   160.44051      319.93167     -2334.965       6.9888959     -2327.9761     -16780.682    
     29100   153.50446      306.1006      -2334.0592      6.6867568     -2327.3725     -13258.521    
     29150   162.76847      324.57382     -2334.7757      7.0903035     -2327.6854     -12455.734    
     29200   162.60235      324.24256     -2334.8837      7.0830672     -2327.8006     -12285.777    
     29250   172.56525      344.1094      -2335.301       7.5170577     -2327.7839     -16840.399    
     29300   142.76892      284.69306     -2333.9537      6.2191097     -2327.7346     -11959.83     
     29350   157.19617      313.46219     -2334.6306      6.8475704     -2327.7831     -13587.456    
     29400   159.9869       319.02713     -2334.7863      6.9691363     -2327.8172     -12853.766    
     29450   157.63967      314.34655     -2334.7267      6.8668893     -2327.8599     -15378.634    
     29500   158.28428      315.63197     -2334.7429      6.8949692     -2327.8479     -15463.431    
     29550   154.97429      309.03158     -2334.5327      6.7507838     -2327.7819     -16961.418    
     29600   157.59147      314.25045     -2334.6898      6.8647898     -2327.825      -15446.823    
     29650   139.25251      277.68104     -2333.9562      6.0659326     -2327.8903     -14391.086    
     29700   137.72269      274.63045     -2333.9855      5.9992925     -2327.9862     -13607.342    
     29750   148.20821      295.53945     -2334.3694      6.4560488     -2327.9133     -15602.298    
     29800   169.34604      337.69003     -2335.2049      7.3768268     -2327.828      -14342.732    
     29850   155.49114      310.06222     -2334.5198      6.7732981     -2327.7465     -12848.984    
     29900   150.8435       300.79443     -2334.4286      6.5708437     -2327.8578     -15929.604    
     29950   146.38349      291.90082     -2334.1457      6.3765629     -2327.7692     -12355.022    
     30000   150.31183      299.73423     -2334.4485      6.5476837     -2327.9008     -11451.535    
     30050   166.21364      331.44378     -2334.9719      7.2403775     -2327.7315     -13566.186    
     30100   147.01627      293.16262     -2334.2961      6.4041271     -2327.892      -15840.78     
     30150   160.47685      320.00412     -2334.9083      6.9904787     -2327.9178     -12773.519    
     30200   149.0416       297.20129     -2334.482       6.4923517     -2327.9897     -14189.826    
     30250   152.98043      305.05564     -2334.7931      6.6639297     -2328.1292     -13752.109    
     30300   159.59707      318.24978     -2334.8845      6.9521552     -2327.9323     -14686.727    
     30350   148.71027      296.54059     -2334.4249      6.4779186     -2327.947      -15506.186    
     30400   149.75428      298.62245     -2334.5293      6.5233968     -2328.0059     -13672.538    
     30450   158.64452      316.35031     -2334.9262      6.9106612     -2328.0155     -16573.623    
     30500   146.57695      292.28658     -2334.4091      6.3849899     -2328.0241     -15211.441    
     30550   141.78785      282.73671     -2334.2474      6.1763735     -2328.071      -15351.612    
     30600   144.39419      287.93397     -2334.4993      6.2899074     -2328.2094     -13908.493    
     30650   144.18832      287.52345     -2334.4048      6.2809395     -2328.1238     -15275.34     
     30700   164.61706      328.26004     -2335.3506      7.170829      -2328.1798     -13118.731    
     30750   163.36721      325.76775     -2335.3091      7.1163849     -2328.1927     -15660.215    
     30800   142.71874      284.593       -2334.2624      6.2169239     -2328.0455     -13318.851    
     30850   150.69569      300.49968     -2334.5646      6.5644049     -2328.0001     -11761.167    
     30900   151.3833       301.87085     -2334.6495      6.5943579     -2328.0551     -14187.612    
     30950   137.88588      274.95587     -2334.0371      6.0064013     -2328.0307     -15680.331    
     31000   146.57254      292.2778      -2334.4149      6.3847981     -2328.0301     -14532.923    
     31050   153.18125      305.45611     -2334.6206      6.6726778     -2327.9479     -14948.07     
     31100   143.87731      286.90328     -2334.4305      6.267392      -2328.1631     -13685.639    
     31150   151.26352      301.63198     -2334.6455      6.58914       -2328.0563     -14817.755    
     31200   148.39933      295.92055     -2334.6433      6.4643739     -2328.1789     -15701.091    
     31250   144.51341      288.17171     -2334.5029      6.2951007     -2328.2078     -14109.273    
     31300   140.19325      279.55695     -2334.1295      6.1069116     -2328.0226     -16587.706    
[...]
    191700   165.95853      330.93507     -2339.7288      7.2292648     -2332.4996     -18049.232    
    191750   155.98639      311.04978     -2339.4129      6.7948714     -2332.618      -14585.759    
    191800   166.0387       331.09492     -2339.9224      7.2327567     -2332.6896     -15748.179    
    191850   156.80029      312.67277     -2339.5737      6.8303257     -2332.7433     -15584.31     
    191900   150.07488      299.26175     -2339.2584      6.5373622     -2332.721      -14838.737    
    191950   155.49209      310.06411     -2339.5267      6.7733396     -2332.7534     -14116.449    
    192000   148.36582      295.85373     -2339.275       6.4629142     -2332.812      -14700.903    
    192050   151.92832      302.95765     -2339.3879      6.6180991     -2332.7698     -13015.142    
    192100   144.24347      287.63344     -2339.0046      6.2833422     -2332.7212     -12931.723    
    192150   155.83801      310.7539      -2339.55        6.7884079     -2332.7616     -13115.828    
    192200   147.10228      293.33414     -2339.1604      6.4078739     -2332.7526     -16273.015    
    192250   160.80666      320.6618      -2339.8109      7.0048456     -2332.8061     -14588.796    
    192300   150.99718      301.10089     -2339.3374      6.5775381     -2332.7599     -14764.465    
    192350   157.51063      314.08924     -2339.58        6.8612683     -2332.7187     -15059.995    
    192400   153.28173      305.65647     -2339.2728      6.6770547     -2332.5957     -14061.058    
    192450   155.60736      310.29396     -2339.4301      6.7783606     -2332.6517     -15032.435    
    192500   151.24361      301.5923      -2339.1651      6.588273      -2332.5769     -13256.963    
    192550   151.28802      301.68084     -2339.1953      6.5902072     -2332.6051     -15488.533    
    192600   148.90761      296.9341      -2339.1067      6.4865149     -2332.6201     -13763.441    
    192650   157.39987      313.86837     -2339.4816      6.8564434     -2332.6252     -14211.946    
    192700   157.33477      313.73857     -2339.5845      6.8536079     -2332.7309     -14344.256    
    192750   163.64399      326.31966     -2339.7292      7.1284415     -2332.6007     -14259.899    
    192800   162.64951      324.33659     -2339.7878      7.0851213     -2332.7027     -13732.196    
    192850   160.19916      319.45039     -2339.7559      6.9783825     -2332.7775     -12402.725    
    192900   146.98128      293.09284     -2339.2248      6.4026027     -2332.8222     -17456.83     
    192950   153.32876      305.75025     -2339.4481      6.6791033     -2332.769      -14212.801    
    193000   158.44712      315.95669     -2339.7479      6.9020627     -2332.8459     -13182.037    
    193050   157.53083      314.12953     -2339.7352      6.8621485     -2332.8731     -13984.869    
    193100   159.68819      318.43148     -2339.7356      6.9561243     -2332.7795     -11553.966    
    193150   164.46804      327.9629      -2340.0036      7.164338      -2332.8392     -14745.821    
    193200   149.89658      298.90621     -2339.5187      6.5295955     -2332.9891     -11859.533    
    193250   160.73672      320.52234     -2339.9625      7.001799      -2332.9607     -13871.8      
    193300   153.81208      306.71403     -2339.7387      6.7001572     -2333.0386     -15878.393    
    193350   158.46191      315.98617     -2339.6334      6.9027067     -2332.7307     -11143.157    
    193400   155.45131      309.98278     -2339.2126      6.7715629     -2332.441      -15776.669    
    193450   144.47976      288.10461     -2338.8363      6.2936349     -2332.5427     -15990.081    
    193500   161.89074      322.82355     -2339.6646      7.0520691     -2332.6125     -15303.158    
    193550   158.00488      315.07483     -2339.4031      6.8827985     -2332.5203     -15459.443    
    193600   161.73395      322.5109      -2339.5543      7.0452392     -2332.509      -13152.471    
    193650   149.79746      298.70855     -2338.9572      6.5252777     -2332.4319     -12619.59     
    193700   162.08293      323.20678     -2339.5236      7.0604406     -2332.4632     -14176.126    
    193750   160.73699      320.52288     -2339.4639      7.0018109     -2332.4621     -15100.294    
    193800   168.41265      335.82877     -2339.9192      7.3361676     -2332.583      -11677.7      
    193850   166.52634      332.06731     -2339.7794      7.2539985     -2332.5254     -12995.636    
    193900   154.09699      307.28217     -2339.267       6.712568      -2332.5544     -16781.487    
    193950   149.08957      297.29696     -2339.0538      6.4944416     -2332.5594     -12222.413    
    194000   153.09668      305.28747     -2339.2638      6.6689939     -2332.5948     -12708.583    
    194050   146.35255      291.83912     -2338.9147      6.3752151     -2332.5395     -15369.988    
    194100   158.37501      315.81289     -2339.4445      6.8989213     -2332.5456     -11639.52     
    194150   163.79361      326.61802     -2339.6516      7.1349591     -2332.5166     -18003.264    
    194200   163.82589      326.68239     -2339.5974      7.1363653     -2332.461      -14945.926    
    194250   151.4153       301.93466     -2339.1108      6.5957518     -2332.515      -14255.333    
    194300   149.062        297.24197     -2339.0795      6.4932403     -2332.5862     -16479.327    
    194350   158.48337      316.02896     -2339.5142      6.9036414     -2332.6106     -16255.511    
    194400   163.51539      326.06324     -2339.5937      7.12284       -2332.4708     -11244.931    
    194450   152.09363      303.2873      -2339.2697      6.6253003     -2332.6444     -14140.919    
    194500   159.1462       317.35071     -2339.4845      6.932515      -2332.552      -12565.841    
    194550   147.71309      294.55214     -2338.9991      6.434481      -2332.5646     -15684.823    
    194600   163.41623      325.8655      -2339.7085      7.1185204     -2332.59       -16563.347    
    194650   159.87869      318.81135     -2339.5724      6.9644227     -2332.608      -12622.132    
    194700   159.60831      318.2722      -2339.6872      6.9526449     -2332.7346     -10496.148    
    194750   167.66899      334.34585     -2340.0768      7.3037732     -2332.7731     -13686.537    
    194800   158.17748      315.41901     -2339.5741      6.890317      -2332.6838     -14156.107    
    194850   154.05562      307.19968     -2339.3004      6.7107661     -2332.5896     -15104.146    
    194900   163.9688       326.96737     -2339.7482      7.1425907     -2332.6056     -15370.152    
    194950   153.20101      305.4955      -2339.2898      6.6735384     -2332.6162     -14418.6      
    195000   165.10303      329.22912     -2339.7927      7.1919985     -2332.6007     -14603.649    
    195050   160.5608       320.17154     -2339.5463      6.9941359     -2332.5522     -14717.749    
    195100   156.27732      311.62992     -2339.4854      6.8075446     -2332.6778     -15097.166    
    195150   173.8139       346.59932     -2340.1142      7.5714499     -2332.5428     -13816.282    
    195200   168.18546      335.37574     -2339.966       7.3262712     -2332.6397     -14338.775    
    195250   153.98967      307.06816     -2339.337       6.7078932     -2332.6291     -14110.768    
    195300   158.72888      316.51854     -2339.6155      6.9143363     -2332.7012     -13058.516    
    195350   155.14796      309.37789     -2339.4689      6.7583489     -2332.7105     -13165.492    
    195400   161.69202      322.42729     -2339.8524      7.0434127     -2332.809      -14556.404    
    195450   143.72931      286.60814     -2339.0783      6.2609447     -2332.8174     -15585.716    
    195500   149.59829      298.31138     -2339.2493      6.5166015     -2332.7327     -11243.449    
    195550   160.00384      319.06092     -2339.7223      6.9698745     -2332.7525     -13473.213    
    195600   155.92166      310.9207      -2339.6135      6.7920516     -2332.8215     -16729.908    
    195650   154.22717      307.54176     -2339.5685      6.7182388     -2332.8502     -13471.317    
    195700   150.44118      299.99217     -2339.4488      6.5533183     -2332.8954     -11615.841    
    195750   140.34792      279.86537     -2339.1021      6.1136492     -2332.9884     -14420.25     
    195800   143.14855      285.45006     -2339.2204      6.2356465     -2332.9848     -16114.5      
    195850   162.16655      323.37354     -2339.9667      7.0640835     -2332.9026     -13863.739    
    195900   155.31117      309.70333     -2339.7358      6.7654584     -2332.9704     -16133.294    
    195950   164.7474       328.51996     -2340.1387      7.1765069     -2332.9621     -13295.821    
    196000   154.53484      308.15526     -2339.7119      6.7316408     -2332.9803     -15458.141    
    196050   158.9919       317.04303     -2339.8816      6.9257937     -2332.9558     -11950.847    
    196100   155.47046      310.02098     -2339.6682      6.7723974     -2332.8958     -16331.633    
    196150   165.32662      329.67497     -2340.1677      7.201738      -2332.9659     -15251.334    
    196200   170.67448      340.33905     -2340.2847      7.4346945     -2332.85       -14018.398    
    196250   149.97942      299.07139     -2339.4148      6.5332039     -2332.8816     -13537.604    
    196300   150.27551      299.66182     -2339.3989      6.5461017     -2332.8528     -14512.698    
    196350   164.60875      328.24349     -2340.0522      7.1704673     -2332.8818     -13390.127    
    196400   141.06155      281.28842     -2339.0534      6.1447355     -2332.9087     -12892.507    
    196450   161.75019      322.54329     -2339.9803      7.0459467     -2332.9343     -13815.864    
    196500   162.83827      324.71299     -2340.0159      7.0933438     -2332.9226     -12436.169    
    196550   156.73192      312.53644     -2339.6428      6.8273474     -2332.8155     -14939.757    
    196600   144.07877      287.30501     -2339.2484      6.2761678     -2332.9723     -13289.961    
    196650   144.66184      288.46769     -2339.0471      6.3015665     -2332.7456     -16345.191    
    196700   156.8078       312.68774     -2339.5347      6.8306525     -2332.7041     -14244.445    
    196750   153.52329      306.13816     -2339.2873      6.6875772     -2332.5998     -18013.16     
    196800   172.77076      344.51922     -2340.197       7.52601       -2332.671      -13580.541    
    196850   162.84741      324.73123     -2339.7313      7.0937422     -2332.6376     -15439.557    
    196900   170.94913      340.88673     -2340.1037      7.4466586     -2332.657      -13593.91     
    196950   157.04875      313.16821     -2339.5838      6.8411485     -2332.7427     -13937.65     
    197000   150.43644      299.98272     -2339.1763      6.5531119     -2332.6232     -13385.19     
    197050   145.9994       291.1349      -2338.938       6.3598315     -2332.5781     -14468.531    
    197100   161.7477       322.53831     -2339.767       7.0458378     -2332.7211     -15263.93     
    197150   158.30545      315.67418     -2339.579       6.8958913     -2332.6831     -13038.672    
    197200   158.3545       315.772       -2339.5152      6.8980281     -2332.6172     -15475.562    
    197250   165.79056      330.60012     -2339.9811      7.2219478     -2332.7592     -13419.629    
    197300   162.99973      325.03496     -2339.9666      7.1003772     -2332.8663     -16142.873    
    197350   155.12852      309.33913     -2339.5228      6.7575022     -2332.7653     -14407.142    
    197400   161.22485      321.4957      -2339.8211      7.0230622     -2332.7981     -12907.287    
    197450   158.03356      315.132       -2339.5882      6.8840474     -2332.7041     -15054.021    
    197500   165.39116      329.80367     -2339.8675      7.2045494     -2332.6629     -11818.339    
    197550   164.60765      328.24129     -2339.8212      7.1704194     -2332.6508     -14692.534    
    197600   164.17886      327.38625     -2339.8963      7.151741      -2332.7446     -14658.901    
    197650   149.41772      297.95131     -2339.1689      6.5087358     -2332.6601     -13356.627    
    197700   166.85328      332.71926     -2339.9873      7.2682404     -2332.719      -14328.834    
    197750   155.51973      310.11923     -2339.5743      6.7745436     -2332.7997     -13734.144    
    197800   158.27528      315.61402     -2339.4623      6.8945771     -2332.5678     -10595.389    
    197850   159.18801      317.43409     -2339.6101      6.9343364     -2332.6758     -12434.806    
    197900   159.56975      318.19531     -2339.5184      6.9509652     -2332.5674     -13990.397    
    197950   149.47277      298.06108     -2339.0817      6.5111337     -2332.5706     -11627.517    
    198000   167.88402      334.77465     -2339.9589      7.3131403     -2332.6457     -12343.75     
    198050   161.47731      321.99913     -2339.4687      7.0340596     -2332.4347     -12758.152    
    198100   171.785        342.55353     -2339.9438      7.4830697     -2332.4607     -14035.019    
    198150   162.01601      323.07334     -2339.3795      7.0575256     -2332.3219     -16138.553    
    198200   154.1781       307.44391     -2339.0494      6.7161014     -2332.3333     -16623.223    
    198250   154.7002       308.48501     -2339.1452      6.7388441     -2332.4064     -14278.05     
    198300   153.17526      305.44416     -2338.963       6.6724168     -2332.2905     -15132.139    
    198350   162.39816      323.83537     -2339.461       7.0741723     -2332.3868     -15002.63     
    198400   157.38196      313.83267     -2339.3458      6.8556635     -2332.4902     -10799.576    
    198450   158.73568      316.53209     -2339.4826      6.9146322     -2332.568      -14732.277    
    198500   153.6102       306.31147     -2339.3203      6.6913633     -2332.6289     -13524.134    
    198550   156.92474      312.92093     -2339.3217      6.8357467     -2332.4859     -16554.106    
    198600   162.67395      324.38533     -2339.5632      7.086186      -2332.477      -13199.08     
    198650   160.5869       320.22359     -2339.4898      6.9952729     -2332.4945     -12383.24     
    198700   150.91633      300.93966     -2339.0427      6.5740161     -2332.4686     -12945.517    
    198750   164.01621      327.06191     -2339.5242      7.1446557     -2332.3795     -15847.557    
    198800   156.14415      311.36436     -2339.1456      6.8017435     -2332.3439     -16783.15     
    198850   163.33092      325.69538     -2339.3585      7.1148041     -2332.2437     -12248.828    
    198900   160.2051       319.46223     -2339.4163      6.9786411     -2332.4376     -11300.603    
    198950   170.11714      339.22767     -2339.7992      7.4104163     -2332.3888     -14647.075    
    199000   160.31192      319.67526     -2339.3095      6.9832946     -2332.3262     -13081.9      
    199050   166.60255      332.21928     -2339.5054      7.2573185     -2332.2481     -12240.466    
    199100   165.21761      329.4576      -2339.1928      7.1969896     -2331.9958     -12861.435    
    199150   161.87655      322.79526     -2339.2143      7.051451      -2332.1628     -16336.319    
    199200   168.30486      335.61383     -2339.3729      7.3314723     -2332.0415     -16916.107    
    199250   157.04042      313.1516      -2338.9239      6.8407856     -2332.0831     -14240.443    
    199300   159.82112      318.69654     -2339.1705      6.9619147     -2332.2086     -14055.769    
    199350   165.98667      330.99116     -2339.4721      7.2304902     -2332.2416     -12720.122    
    199400   160.60116      320.25202     -2339.2625      6.995894      -2332.2666     -14650.278    
    199450   147.88951      294.90394     -2338.7713      6.4421661     -2332.3291     -14936.612    
    199500   160.47941      320.00924     -2339.2758      6.9905905     -2332.2852     -13401.369    
    199550   148.88891      296.89682     -2338.7312      6.4857006     -2332.2455     -13809.612    
    199600   156.40832      311.89115     -2339.1494      6.8132512     -2332.3361     -13659.938    
    199650   151.24306      301.59118     -2338.8716      6.5882487     -2332.2833     -12034.422    
    199700   159.18835      317.43475     -2339.3322      6.9343509     -2332.3979     -13377.912    
    199750   147.52522      294.17751     -2338.8383      6.4262972     -2332.412      -12453.035    
    199800   166.80216      332.61733     -2339.6891      7.2660138     -2332.4231     -14134.066    
    199850   152.11834      303.33658     -2339.2135      6.6263768     -2332.5871     -16086.289    
    199900   154.14486      307.37761     -2339.238       6.714653      -2332.5234     -14608.58     
    199950   163.08259      325.20019     -2339.7274      7.1039866     -2332.6234     -12366.902    
    200000   154.10036      307.28889     -2339.4809      6.7127148     -2332.7682     -10605.889    
colvars: Saving collective variables state to "out.colvars.state".
Loop time of 959.536 on 4 procs for 200000 steps with 338 atoms

Performance: 9.004 ns/day, 2.665 hours/ns, 208.434 timesteps/s, 70.451 katom-step/s
139.7% CPU use with 4 MPI tasks x 1 OpenMP threads

MPI task timing breakdown:
Section |  min time  |  avg time  |  max time  |%varavg| %total
---------------------------------------------------------------
Pair    | 764.65     | 848.1      | 913.88     | 229.2 | 88.39
Neigh   | 0.12894    | 1.8706     | 3.2404     |  85.2 |  0.19
Comm    | 16.853     | 79.405     | 158.83     | 711.3 |  8.28
Output  | 4.4592     | 5.3344     | 6.3067     |  36.1 |  0.56
Modify  | 17.654     | 22.258     | 26.537     |  90.0 |  2.32
Other   |            | 2.565      |            |       |  0.27

Nlocal:           84.5 ave         131 max           1 min
Histogram: 1 0 0 0 0 0 0 1 1 1
Nghost:        1152.25 ave        1680 max         614 min
Histogram: 1 0 0 0 1 1 0 0 0 1
Neighs:              0 ave           0 max           0 min
Histogram: 4 0 0 0 0 0 0 0 0 0
FullNghs:      15730.5 ave       27953 max          47 min
Histogram: 1 0 0 0 1 0 0 1 0 1

Total # of neighbors = 62922
Ave neighs/atom = 186.15976
Neighbor list builds = 3238
Dangerous builds = 0
write_data final.data
System init for write_data ...
Generated 0 of 6 mixed pair_coeff terms from geometric mixing rule

CITE-CITE-CITE-CITE-CITE-CITE-CITE-CITE-CITE-CITE-CITE-CITE-CITE

Your simulation uses code contributions which should be cited:

- Colvars module (Fiorin2013, plus other works listed for specific features)


% Colvars module:
% Colvars-LAMMPS interface:
% Metadynamics colvar bias implementation:
% Optimal rotation via flexible fitting:
% coordNum colvar component:

@article{Fiorin2013,
  author = {Fiorin, Giacomo and Klein, Michael L.{} and H\'enin, J\'er\^ome},
  title = {Using collective variables to drive molecular dynamics simulations},
  journal = {Mol. Phys.},
  year = {2013},
  volume = {111},
  number = {22-23},
  pages = {3345--3362},
  publisher = {Taylor & Francis},
  doi = {10.1080/00268976.2013.813594},
  url = {https://doi.org/10.1080/00268976.2013.813594}
}


% LAMMPS engine:

@article{Thompson2022,
  title = {{LAMMPS} - a flexible simulation tool for particle-based materials modeling at the atomic, meso, and continuum scales},
  author = {Thompson, Aidan P. and Aktulga, H. Metin and Berger, Richard and Bolintineanu, Dan S. and Brown, W. Michael and Crozier, Paul S. and {in't Veld}, Pieter J. and Kohlmeyer, Axel and Moore, Stan G. and Nguyen, Trung Dac and Shan, Ray and Stevens, Mark J. and Tranchida, Julien and Trott, Christian and Plimpton, Steven J.},
  journal = {Comp. Phys. Comm.},
  volume = {271},
  pages = {108171},
  year = {2022},
  doi = {10.1016/j.cpc.2021.108171},
  url = {https://doi.org/10.1016/j.cpc.2021.108171}
}

CITE-CITE-CITE-CITE-CITE-CITE-CITE-CITE-CITE-CITE-CITE-CITE-CITE

Total wall time: 0:16:21
