LAMMPS (2 Aug 2023)
OMP_NUM_THREADS environment is not set. Defaulting to 1 thread. (src/comm.cpp:98)
  using 1 OpenMP thread(s) per MPI task
Loaded 1 plugins from /work/home/baoergen22b/apprepo/deepmd/v2.2.9-dtk23.10/app/lib/deepmd_lmp
package gpu 4
# system
units        metal
dimension    3
atom_style   atomic
boundary     p p f

# 设置原子映射
atom_modify map array

# initial stucture
read_data POSCAR.lmp
Reading data file ...
  orthogonal box = (0 0 0) to (11.328 12.015 32)
  1 by 1 by 4 MPI processor grid
  reading atoms ...
  339 atoms
  read_data CPU = 0.010 seconds
mass      1 55.845
mass      2 15.999
mass      3 1.008
mass      4  35.450

# potential
pair_style deepmd graph-compress.pb
Summary of lammps deepmd module ...
  >>> Info of deepmd-kit:
  installed to:       /work/home/wys974137909/shangcheng/deepmd-kit/20240715/deepmd-kit_v2.2.9/install
  source:             v2.2.9
  source branch:      HEAD
  source commit:      be43748
  source commit at:   2024-02-04 13:44:12 +0800
  support model ver.: 1.1 
  build variant:      rocm
  build with tf inc:  /work/home/wys974137909/shangcheng/miniconda3/envs/deepmd-kit-v2.2.9/lib/python3.8/site-packages/tensorflow/include;/work/home/wys974137909/shangcheng/miniconda3/envs/deepmd-kit-v2.2.9/lib/python3.8/site-packages/tensorflow/include
  build with tf lib:  /work/home/wys974137909/shangcheng/miniconda3/envs/deepmd-kit-v2.2.9/lib/python3.8/site-packages/tensorflow/lib/libtensorflow_cc.so
  set tf intra_op_parallelism_threads: 0
  set tf inter_op_parallelism_threads: 0
  >>> Info of lammps module:
  use deepmd-kit at:  /work/home/wys974137909/shangcheng/deepmd-kit/20240715/deepmd-kit_v2.2.9/install
  source:             v2.2.9
  source branch:      HEAD
  source commit:      be43748
  source commit at:   2024-02-04 13:44:12 +0800
  build float prec:   double
  build with tf inc:  /work/home/wys974137909/shangcheng/miniconda3/envs/deepmd-kit-v2.2.9/lib/python3.8/site-packages/tensorflow/include;/work/home/wys974137909/shangcheng/miniconda3/envs/deepmd-kit-v2.2.9/lib/python3.8/site-packages/tensorflow/include
  build with tf lib:  /work/home/wys974137909/shangcheng/miniconda3/envs/deepmd-kit-v2.2.9/lib/python3.8/site-packages/tensorflow/lib/libtensorflow_cc.so
pair_coeff * *

# 固定原子受力、速度为 0
group fixed id 1:168
168 atoms in group fixed
group mobile subtract all fixed
171 atoms in group mobile
fix freeze_fixed fixed setforce 0.0 0.0 0.0
velocity fixed set 0 0 0

# 在z=27处添加硬性反射墙
fix wall1 mobile wall/reflect zhi 26

# 计算mobile组的温度
compute mTemp mobile temp
thermo 50
thermo_style custom step temp c_mTemp pe ke etotal press
velocity mobile  create 298.15 12345 mom yes rot yes

#fix ensemble mobile  nvt temp 298.15 298.15 1
#timestep 0.0005
#run 15000
#unfix ensemble        # 结束预平衡的NVT

fix ensemble mobile  nvt temp 298.15 298.15 1
fix meta  all colvars pmf.in tstat ensemble
timestep 0.0005
dump trace all custom 10 md.lammpstrj id type x y z
run 200000

CITE-CITE-CITE-CITE-CITE-CITE-CITE-CITE-CITE-CITE-CITE-CITE-CITE

Your simulation uses code contributions which should be cited:

- GPU package (short-range, long-range and three-body potentials): doi:10.1016/j.cpc.2010.12.021, doi:10.1016/j.cpc.2011.10.012, doi:10.1016/j.cpc.2013.08.002, doi:10.1016/j.commatsci.2014.10.068, doi:10.1016/j.cpc.2016.10.020, doi:10.3233/APC200086

@Article{Brown11,
 author = {W. M. Brown and P. Wang and S. J. Plimpton and A. N. Tharrington},
 title = {Implementing Molecular Dynamics on Hybrid High Performance Computers---Short Range Forces},
 journal = {Comput.\ Phys.\ Commun.},
 year =    2011,
 volume =  182,
 pages =   {898--911},
 doi =     {10.1016/j.cpc.2010.12.021}
}

@Article{Brown12,
 author = {W. M. Brown and A. Kohlmeyer and S. J. Plimpton and A. N. Tharrington},
 title = {Implementing Molecular Dynamics on Hybrid High Performance Computers - Particle-Particle Particle-Mesh},
 journal = {Comput.\ Phys.\ Commun.},
 year =    2012,
 volume =  183,
 doi =     {10.1016/j.cpc.2011.10.012},
 pages =   {449--459}
}

@Article{Brown13,
 author = {W. M. Brown and Y. Masako},
 title = {Implementing Molecular Dynamics on Hybrid High Performance Computers---Three-Body Potentials},
 journal = {Comput.\ Phys.\ Commun.},
 year =    2013,
 volume =  184,
 pages =   {2785--2793},
 doi =     {10.1016/j.cpc.2013.08.002},
}

@Article{Trung15,
 author = {T. D. Nguyen and S. J. Plimpton},
 title = {Accelerating Dissipative Particle Dynamics Simulations for Soft Matter Systems},
 journal = {Comput.\ Mater.\ Sci.},
 year =    2015,
 doi =     {10.1016/j.commatsci.2014.10.068},
 volume =  100,
 pages =   {173--180}
}

@Article{Trung17,
 author = {T. D. Nguyen},
 title = {{GPU}-Accelerated {T}ersoff Potentials for Massively Parallel
    Molecular Dynamics Simulations},
 journal = {Comput.\ Phys.\ Commun.},
 year =    2017,
 doi =     {10.1016/j.cpc.2016.10.020},
 volume =  212,
 pages =   {113--122}
}

@inproceedings{Nikolskiy19,
 author = {V. Nikolskiy and V. Stegailov},
 title = {{GPU} Acceleration of Four-Site Water Models in {LAMMPS}},
 booktitle = {Proceedings of the International Conference on Parallel
    Computing (ParCo 2019), Prague, Czech Republic},
 doi =     {10.3233/APC200086},
 year =    2019
}

- USER-DEEPMD package:

@article{Wang_ComputPhysCommun_2018_v228_p178,
  author = {Wang, Han and Zhang, Linfeng and Han, Jiequn and E, Weinan},
  doi = {10.1016/j.cpc.2018.03.016},
  url = {https://doi.org/10.1016/j.cpc.2018.03.016},
  year = 2018,
  month = {jul},
  publisher = {Elsevier {BV}},
  volume = 228,
  journal = {Comput. Phys. Commun.},
  title = {{DeePMD-kit: A deep learning package for many-body potential energy representation and molecular dynamics}},
  pages = {178--184}
}
@misc{Zeng_JChemPhys_2023_v159_p054801,
  title  = {{DeePMD-kit v2: A software package for deep potential models}},
  author =   {Jinzhe Zeng and Duo Zhang and Denghui Lu and Pinghui Mo and Zeyu Li
         and Yixiao Chen and Mari{\'a}n Rynik and Li'ang Huang and Ziyao Li and 
         Shaochen Shi and Yingze Wang and Haotian Ye and Ping Tuo and Jiabin
         Yang and Ye Ding and Yifan Li and Davide Tisi and Qiyu Zeng and Han 
         Bao and Yu Xia and Jiameng Huang and Koki Muraoka and Yibo Wang and 
         Junhan Chang and Fengbo Yuan and Sigbj{\o}rn L{\o}land Bore and Chun
         Cai and Yinnian Lin and Bo Wang and Jiayan Xu and Jia-Xin Zhu and 
         Chenxing Luo and Yuzhi Zhang and Rhys E A Goodall and Wenshuo Liang
         and Anurag Kumar Singh and Sikai Yao and Jingchao Zhang and Renata
         Wentzcovitch and Jiequn Han and Jie Liu and Weile Jia and Darrin M
         York and Weinan E and Roberto Car and Linfeng Zhang and Han Wang},
  journal =  {J. Chem. Phys.},
  volume =   159,
  issue =    5,  
  year =    2023,
  pages  =   054801,
  doi =      {10.1063/5.0155600},
}

CITE-CITE-CITE-CITE-CITE-CITE-CITE-CITE-CITE-CITE-CITE-CITE-CITE

Generated 0 of 6 mixed pair_coeff terms from geometric mixing rule
Neighbor list info ...
  update: every = 1 steps, delay = 0 steps, check = yes
  max neighbors/atom: 2000, page size: 100000
  master list distance cutoff = 8
  ghost atom cutoff = 8
  binsize = 4, bins = 3 4 8
  1 neighbor lists, perpetual/occasional/extra = 1 0 0
  (1) pair deepmd, perpetual
      attributes: full, newton on
      pair build: full/bin/atomonly
      stencil: full/bin/3d
      bin: standard
colvars: Creating proxy instance
colvars: ----------------------------------------------------------------------
colvars: Initializing the collective variables module, version 2023-05-01.
colvars: Please cite Fiorin et al, Mol Phys 2013:
colvars:   https://doi.org/10.1080/00268976.2013.813594
colvars: as well as all other papers listed below for individual features used.
colvars: This version was built with the C++11 standard or higher.
colvars: Using LAMMPS interface, version "2023-04-12".
colvars: ----------------------------------------------------------------------
colvars: Reading new configuration from file "pmf.in":
colvars: # units = "" [default]
colvars: # smp = on [default]
colvars: # colvarsTrajFrequency = 100 [default]
colvars: # colvarsRestartFrequency = 0 [default]
colvars: # scriptedColvarForces = off [default]
colvars: # scriptingAfterBiases = off [default]
colvars: ----------------------------------------------------------------------
colvars:   Initializing a new collective variable.
colvars:   # name = "d"
colvars:   Initializing a new "distance" component.
colvars:     # name = "" [default]
colvars:     # componentCoeff = 1 [default]
colvars:     # componentExp = 1 [default]
colvars:     # period = 0 [default]
colvars:     # wrapAround = 0 [default]
colvars:     # forceNoPBC = off [default]
colvars:     # scalable = on [default]
colvars:       Initializing atom group "group1".
colvars:       # name = "" [default]
colvars:       # centerToOrigin = off [default]
colvars:       # centerToReference = off [default]
colvars:       # rotateToReference = off [default]
colvars:       # atomsOfGroup = "" [default]
colvars:       # indexGroup = "" [default]
colvars:       # psfSegID =  [default]
colvars:       # atomsFile = "" [default]
colvars:       # dummyAtom = ( 0 , 0 , 0 ) [default]
colvars:       # enableFitGradients = on [default]
colvars:       # printAtomIDs = off [default]
colvars:       Atom group "group1" defined with 1 atoms requested.
colvars:       Initializing atom group "group2".
colvars:       # name = "" [default]
colvars:       # centerToOrigin = off [default]
colvars:       # centerToReference = off [default]
colvars:       # rotateToReference = off [default]
colvars:       # atomsOfGroup = "" [default]
colvars:       # indexGroup = "" [default]
colvars:       # psfSegID =  [default]
colvars:       # atomsFile = "" [default]
colvars:       # dummyAtom = ( 0 , 0 , 0 ) [default]
colvars:       # enableFitGradients = on [default]
colvars:       # printAtomIDs = off [default]
colvars:       Atom group "group2" defined with 1 atoms requested.
colvars:     # oneSiteSystemForce = off [default]
colvars:     # oneSiteTotalForce = off [default]
colvars:   All components initialized.
colvars:   # timeStepFactor = 1 [default]
colvars:   # width = 0.02
colvars:   # lowerBoundary = 0.3
colvars:   # upperBoundary = 4
colvars:   # hardLowerBoundary = on
colvars:   # hardUpperBoundary = on
colvars:   # expandBoundaries = off [default]
colvars:   # extendedLagrangian = off [default]
colvars:   # outputValue = on [default]
colvars:   # outputVelocity = off [default]
colvars:   # outputTotalForce = on
colvars:   # outputAppliedForce = on
colvars:   # subtractAppliedForce = off [default]
colvars:   # runAve = off [default]
colvars:   # corrFunc = off [default]
colvars: ----------------------------------------------------------------------
colvars: Collective variables initialized, 1 in total.
colvars: ----------------------------------------------------------------------
colvars:   Initializing a new "metadynamics" instance.
colvars:   # name = "metadynamics1" [default]
colvars:   # colvars = { d }
colvars:   # stepZeroData = off [default]
colvars:   # outputEnergy = off [default]
colvars:   # outputFreq = 0 [default]
colvars:   # timeStepFactor = 1 [default]
colvars:   # writeTISamples = on
colvars:   # writeTIPMF = on
colvars:   # hillWeight = 0.08
colvars:   # newHillFrequency = 200
colvars:   # gaussianSigmas =  [default]
colvars:   # hillWidth = 1
colvars:   Half-widths of the Gaussian hills (sigma's):
colvars:   d: 0.01
colvars:   # multipleReplicas = off [default]
colvars:   # useGrids = on [default]
colvars:   # gridsUpdateFrequency = 200 [default]
colvars:   # rebinGrids = off [default]
colvars:   # writeFreeEnergyFile = on [default]
colvars:   # keepHills = off [default]
colvars:   # keepFreeEnergyFiles = off [default]
colvars:   # writeHillsTrajectory = off [default]
colvars:   # wellTempered = off [default]
colvars:   # biasTemperature = 800
colvars:   # ebMeta = off [default]
colvars: ----------------------------------------------------------------------
colvars: Collective variables biases initialized, 1 in total.
colvars: ----------------------------------------------------------------------
colvars: Collective variables module (re)initialized.
colvars: ----------------------------------------------------------------------
colvars: Re-initialized atom group for variable "d":0/0. 1 atoms: total mass = 1.008, total charge = 2.32225e-310.
colvars: Re-initialized atom group for variable "d":0/1. 1 atoms: total mass = 1.008, total charge = 4.66981e-310.
colvars: The restart output state file will be "rest.colvars.state".
colvars: The final output state file will be "out.colvars.state".
Per MPI rank memory allocation (min/avg/max) = 3.124 | 3.153 | 3.169 Mbytes
   Step          Temp         c_mTemp         PotEng         KinEng         TotEng         Press     
         0   149.9571       298.15        -2246.4242      6.5516151     -2239.8725     -14917.607    
        50   170.26374      338.52438     -2243.7831      7.4388107     -2236.3443     -15973.328    
       100   180.27753      358.43415     -2244.2152      7.8763124     -2236.3389     -18881.711    
       150   191.86534      381.47344     -2244.7719      8.3825832     -2236.3893     -14363.81     
       200   196.13974      389.97196     -2244.8965      8.5693314     -2236.3271     -16129.647    
       250   166.13421      330.31391     -2243.3374      7.258392      -2236.079      -17146.324    
       300   210.90067      419.32015     -2245.341       9.2142352     -2236.1267     -14038.199    
       350   211.11049      419.73732     -2245.3803      9.2234022     -2236.1569     -14821.223    
       400   196.78782      391.26049     -2244.735       8.5976459     -2236.1373     -15561.901    
       450   205.20464      407.99511     -2244.7141      8.9653762     -2235.7487     -15247.209    
       500   198.82539      395.31166     -2244.471       8.6866673     -2235.7843     -16845.373    
       550   206.80746      411.1819      -2244.8629      9.0354035     -2235.8275     -16592.58     
       600   228.66211      454.63408     -2245.8571      9.9902315     -2235.8669     -14943.488    
       650   202.94724      403.50686     -2244.7802      8.8667504     -2235.9134     -11857.25     
       700   215.73535      428.93263     -2245.2793      9.425462      -2235.8538     -13560.149    
       750   208.69773      414.94019     -2245.0017      9.117989      -2235.8837     -14220.508    
       800   194.17156      386.05875     -2244.457       8.4833416     -2235.9737     -15933.917    
       850   208.55537      414.65714     -2245.0897      9.1117691     -2235.9779     -16070.571    
       900   193.99661      385.7109      -2244.5606      8.475698      -2236.0849     -12797.274    
       950   214.87212      427.21633     -2245.2371      9.3877476     -2235.8494     -15572.348    
      1000   186.84438      371.49058     -2244.0902      8.1632175     -2235.927      -12922.308    
      1050   201.9736       401.57104     -2244.4202      8.8242122     -2235.596      -17392.613    
      1100   201.79391      401.21378     -2243.3954      8.8163617     -2234.579      -10829.37     
      1150   211.51168      420.53499     -2243.8857      9.2409303     -2234.6447     -14037.16     
      1200   243.04136      483.22341     -2244.8863      10.61846      -2234.2679     -16275.899    
      1250   211.9535       421.41342     -2243.0786      9.2602332     -2233.8184     -13762.923    
      1300   213.5639       424.61529     -2242.9975      9.3305918     -2233.6669     -16009.068    
      1350   235.54476      468.31841     -2244.0949      10.290934     -2233.8039     -14358.451    
      1400   228.11666      453.54959     -2243.862       9.9664006     -2233.8956     -15276.324    
      1450   235.42652      468.08331     -2244.0507      10.285768     -2233.7649     -17943.378    
      1500   220.41854      438.24392     -2243.1149      9.6300704     -2233.4848     -12742.633    
      1550   194.07049      385.85779     -2242.0602      8.4789258     -2233.5813     -14564.908    
      1600   229.2629       455.82859     -2243.6447      10.01648      -2233.6283     -17346.653    
      1650   197.68697      393.04821     -2242.0479      8.6369296     -2233.411      -15966.031    
      1700   202.05231      401.72753     -2242.3251      8.8276509     -2233.4975     -16256.665    
      1750   207.64003      412.83723     -2242.3521      9.071778      -2233.2803     -15761.042    
      1800   216.96304      431.37358     -2242.7816      9.4790999     -2233.3025     -19258.7      
      1850   217.86704      433.17094     -2242.8036      9.5185956     -2233.285      -13214.74     
      1900   213.75211      424.98949     -2242.5252      9.3388145     -2233.1864     -16593.071    
      1950   222.81393      443.00651     -2243.2712      9.7347246     -2233.5364     -12845.744    
      2000   221.99853      441.38532     -2242.9608      9.6991001     -2233.2617     -16996.607    
      2050   221.05687      439.51308     -2243.0644      9.6579591     -2233.4065     -16270.335    
      2100   213.03291      423.55955     -2241.7156      9.3073926     -2232.4082     -12736.548    
      2150   236.54885      470.31477     -2242.0743      10.334802     -2231.7395     -15632.405    
      2200   254.98697      506.9741      -2242.8727      11.140363     -2231.7323     -14022.499    
      2250   238.25445      473.70591     -2241.9595      10.40932      -2231.5502     -20532.159    
      2300   241.07053      479.30493     -2241.7688      10.532354     -2231.2365     -11768.548    
      2350   231.21995      459.71966     -2241.9587      10.101983     -2231.8567     -17869.859    
      2400   224.89058      447.13539     -2241.705       9.8254536     -2231.8795     -14341.164    
      2450   230.56131      458.41013     -2241.8643      10.073207     -2231.7911     -14178.156    
      2500   230.36388      458.0176      -2241.7321      10.064582     -2231.6676     -17299.775    
      2550   234.75627      466.7507      -2241.9547      10.256485     -2231.6982     -20501.463    
      2600   220.82915      439.06031     -2241.3333      9.64801       -2231.6853     -14224.454    
      2650   219.77838      436.97112     -2241.2932      9.6021016     -2231.6911     -14872.873    
      2700   221.36772      440.13111     -2241.5016      9.6715399     -2231.8301     -14545.774    
      2750   242.60095      482.34778     -2242.5083      10.599219     -2231.9091     -11722.551    
      2800   234.30832      465.86007     -2242.2595      10.236914     -2232.0225     -14625.18     
      2850   231.43749      460.15218     -2242.0511      10.111487     -2231.9396     -14511.54     
      2900   213.66564      424.81756     -2241.5406      9.3350366     -2232.2056     -16000.509    
      2950   213.35977      424.20942     -2241.6636      9.3216731     -2232.342      -11497.192    
      3000   212.33904      422.17996     -2241.6256      9.2770774     -2232.3486     -13868.065    
      3050   202.34602      402.31151     -2240.6908      8.8404834     -2231.8503     -14101.078    
      3100   218.86673      435.15857     -2240.9781      9.5622721     -2231.4158     -15697.155    
      3150   215.14979      427.7684      -2240.9021      9.399879      -2231.5022     -12878.589    
      3200   238.58721      474.36751     -2241.9327      10.423858     -2231.5089     -16602.176    
      3250   219.84768      437.10892     -2241.1039      9.6051296     -2231.4987     -13376.363    
      3300   229.46559      456.23158     -2241.9668      10.025335     -2231.9414     -15419.545    
      3350   217.17047      431.78599     -2241.0313      9.4881624     -2231.5431     -16476.274    
      3400   237.26824      471.74509     -2241.4924      10.366233     -2231.1262     -16281.593    
      3450   237.7565       472.71587     -2240.664       10.387565     -2230.2764     -15872.496    
      3500   228.72626      454.76163     -2240.3569      9.9930343     -2230.3639     -12372.491    
      3550   249.63107      496.32531     -2240.7258      10.906364     -2229.8195     -16400.294    
      3600   279.14582      555.00757     -2242.0277      12.195861     -2229.8319     -15122.137    
      3650   234.96904      467.17374     -2240.1062      10.265781     -2229.8404     -14960.046    
      3700   257.16233      511.29922     -2241.2006      11.235404     -2229.9652     -12640.886    
      3750   249.92873      496.91711     -2241.0001      10.919368     -2230.0807     -13690.167    
      3800   246.34979      489.80134     -2240.9671      10.763005     -2230.2041     -14033.717    
      3850   229.94746      457.18966     -2240.3621      10.046388     -2230.3157     -8394.4231    
      3900   250.6904       498.4315      -2241.3958      10.952646     -2230.4432     -11266.673    
      3950   221.21949      439.8364      -2240.209       9.6650638     -2230.544      -11217.948    
      4000   223.5957       444.56086     -2240.4259      9.7688802     -2230.657      -12898.162    
      4050   234.2327       465.70972     -2241.0218      10.23361      -2230.7882     -12389.741    
      4100   211.694        420.89748     -2240.1367      9.2488958     -2230.8878     -16705.314    
      4150   210.68847      418.89826     -2240.1861      9.2049645     -2230.9811     -10846.96     
      4200   218.94556      435.31528     -2240.6647      9.5657158     -2231.099      -14935.077    
      4250   233.13589      463.52901     -2241.3954      10.185691     -2231.2097     -14154.749    
      4300   235.92015      469.06476     -2241.6186      10.307335     -2231.3113     -13244.95     
      4350   218.40607      434.24265     -2240.9545      9.5421455     -2231.4124     -14417.129    
      4400   217.02003      431.48689     -2240.9923      9.4815897     -2231.5107     -12673.293    
      4450   227.76005      452.84057     -2241.5753      9.9508204     -2231.6245     -11479.991    
      4500   223.18197      443.73827     -2241.4552      9.7508045     -2231.7044     -15930.003    
      4550   226.72578      450.78419     -2241.7195      9.9056331     -2231.8139     -11322.966    
      4600   221.68044      440.75288     -2241.6095      9.6852029     -2231.9243     -9905.3782    
      4650   218.82778      435.08111     -2241.5747      9.56057       -2232.0141     -12495.148    
      4700   206.77528      411.11791     -2241.143       9.0339973     -2232.109      -12209.702    
      4750   214.30967      426.09806     -2241.5732      9.3631745     -2232.21       -16938.245    
      4800   184.32198      366.47547     -2240.3418      8.0530144     -2232.2888     -15112.055    
      4850   202.12313      401.86833     -2241.2235      8.830745      -2232.3927     -7913.5329    
      4900   183.55177      364.9441      -2240.4864      8.0193636     -2232.467      -13630.158    
      4950   204.92738      407.44386     -2241.5184      8.9532629     -2232.5651     -12567.061    
      5000   186.59159      370.98799     -2240.7891      8.1521734     -2232.6369     -14848.242    
      5050   216.9562       431.35997     -2242.2185      9.4788009     -2232.7397     -9919.499     
      5100   195.20361      388.11071     -2241.342       8.528432      -2232.8136     -15427.34     
      5150   205.3338       408.25191     -2241.8834      8.9710192     -2232.9124     -9907.9025    
      5200   202.72564      403.06626     -2241.8578      8.8570686     -2233.0008     -12952.599    
      5250   192.84048      383.41225     -2241.5051      8.4251869     -2233.08       -14349.194    
      5300   193.01882      383.76683     -2241.6029      8.4329785     -2233.1699     -12441.453    
      5350   193.02095      383.77107     -2241.6845      8.4330717     -2233.2514     -12445.484    
      5400   190.67488      379.10652     -2241.6628      8.3305718     -2233.3322     -12842.142    
      5450   172.99366      343.95211     -2240.963       7.5580808     -2233.4049     -13799.069    
      5500   174.15615      346.26341     -2241.0956      7.60887       -2233.4868     -13443.766    
      5550   198.60163      394.86677     -2242.2506      8.676891      -2233.5737     -14866.583    
      5600   196.58739      390.86199     -2242.2375      8.5888892     -2233.6486     -12519.389    
      5650   206.61678      410.80277     -2242.7647      9.0270724     -2233.7376     -11009.524    
      5700   202.29649      402.21303     -2242.6538      8.8383195     -2233.8155     -14267.6      
      5750   194.99623      387.69839     -2242.4261      8.5193716     -2233.9067     -12332.19     
      5800   207.11291      411.7892      -2243.0421      9.0487485     -2233.9934     -10240.293    
      5850   195.1655       388.03493     -2242.5965      8.5267668     -2234.0697     -14667.626    
      5900   216.9181       431.28423     -2243.6454      9.4771366     -2234.1683     -12353.532    
      5950   187.36923      372.53411     -2242.4287      8.1861482     -2234.2426     -15019.83     
      6000   187.99427      373.77683     -2242.5415      8.2134561     -2234.3281     -13465.134    
      6050   189.01321      375.80273     -2242.669       8.2579737     -2234.411      -14144.465    
      6100   191.94117      381.6242      -2242.8784      8.3858959     -2234.4925     -10961.562    
      6150   190.62171      379.00082     -2242.8957      8.3282491     -2234.5675     -11705.179    
      6200   166.49589      331.03301     -2241.9171      7.2741938     -2234.643      -14567.521    
      6250   189.52304      376.8164      -2243.0088      8.2802483     -2234.7285     -9796.2428    
      6300   182.52673      362.90609     -2242.7871      7.9745799     -2234.8125     -12692.69     
      6350   195.20894      388.12131     -2243.4253      8.5286649     -2234.8966     -15303.586    
      6400   175.33927      348.61573     -2242.6277      7.6605603     -2234.9672     -11059.622    
      6450   155.68216      309.53276     -2241.8336      6.8017425     -2235.0318     -12540.072    
      6500   178.30997      354.52217     -2242.8965      7.7903497     -2235.1062     -11435.976    
      6550   176.34709      350.6195      -2242.882       7.7045917     -2235.1774     -10933.184    
      6600   182.45185      362.7572      -2243.2221      7.9713083     -2235.2507     -14106.662    
      6650   186.40972      370.62638     -2243.4693      8.1442274     -2235.3251     -12205.38     
      6700   158.67093      315.47514     -2242.3098      6.9323215     -2235.3775     -12194.404    
      6750   182.17272      362.20224     -2243.4108      7.9591133     -2235.4517     -12091.291    
      6800   183.70062      365.24005     -2243.5408      8.025867      -2235.515      -11467.81     
      6850   189.82896      377.42464     -2243.886       8.2936138     -2235.5924     -14043.375    
      6900   178.85625      355.60831     -2243.4744      7.8142169     -2235.6601     -10256.021    
      6950   175.37774      348.69222     -2243.3896      7.6622411     -2235.7273     -12082.489    
      7000   172.90425      343.77433     -2243.3517      7.5541744     -2235.7975     -11065.807    
      7050   177.15381      352.22346     -2243.6031      7.7398374     -2235.8632     -10619.875    
      7100   171.85979      341.6977      -2243.4368      7.508542      -2235.9282     -12581.115    
      7150   175.17883      348.29674     -2243.6471      7.6535508     -2235.9936     -11797.974    
      7200   166.26614      330.57621     -2243.3203      7.2641559     -2236.0561     -14052.205    
      7250   173.47923      344.91753     -2243.7001      7.5792953     -2236.1208     -13528.107    
      7300   171.82297      341.62449     -2243.6972      7.5069332     -2236.1902     -11081.194    
      7350   164.22011      326.50822     -2243.4151      7.174765      -2236.2404     -11314.078    
      7400   167.52618      333.08146     -2243.6204      7.3192068     -2236.3012     -14736.702    
      7450   173.03721      344.0387      -2243.9297      7.5599836     -2236.3697     -11552.54     
      7500   167.86102      333.74721     -2243.7657      7.3338361     -2236.4319     -11095.553    
      7550   166.5911       331.2223      -2243.7703      7.2783532     -2236.4919     -15064.316    
      7600   166.13734      330.32012     -2243.8017      7.2585286     -2236.5432     -12389.209    
      7650   149.60324      297.44644     -2243.14        6.5361549     -2236.6038     -11267.719    
      7700   166.78589      331.60959     -2243.9466      7.2868635     -2236.6597     -11213.363    
      7750   171.14143      340.26944     -2244.1981      7.4771571     -2236.7209     -12556.151    
      7800   172.98281      343.93053     -2244.3374      7.5576066     -2236.7798     -11177.329    
      7850   170.62018      339.23306     -2244.2938      7.4543834     -2236.8394     -11680.258    
      7900   170.27714      338.55101     -2244.3332      7.439396      -2236.8938     -15142.425    
      7950   154.1046       306.3962      -2243.6743      6.732819      -2236.9415     -13972.838    
      8000   161.38749      320.87631     -2244.0503      7.0510082     -2236.9993     -14777.527    
      8050   160.7342       319.57741     -2244.0648      7.0224658     -2237.0423     -9336.7257    
      8100   151.12587      300.4738      -2243.7054      6.6026787     -2237.1027     -13349.628    
      8150   150.80558      299.83697     -2243.7367      6.588685      -2237.148      -11621.197    
      8200   166.88736      331.81134     -2244.4907      7.291297      -2237.1994     -13703.464    
      8250   167.6739       333.37517     -2244.5708      7.3256608     -2237.2451     -14988.813    
      8300   156.90931      311.97263     -2244.1498      6.8553567     -2237.2945     -9939.374     
      8350   165.92094      329.88987     -2244.5956      7.2490742     -2237.3465     -13786.92     
      8400   158.22695      314.5924      -2244.3032      6.9129241     -2237.3903     -12257.203    
      8450   172.81286      343.59264     -2245.0013      7.5501818     -2237.4511     -13386.997    
      8500   165.66051      329.37207     -2244.729       7.2376958     -2237.4913     -13757.979    
      8550   164.42803      326.9216      -2244.7298      7.1838488     -2237.5459     -12629.608    
      8600   168.1083       334.23886     -2244.9401      7.3446399     -2237.5955     -14447.187    
      8650   156.57185      311.30168     -2244.4826      6.8406131     -2237.642      -14701.389    
      8700   159.72194      317.5648      -2244.6713      6.9782401     -2237.693      -9993.6312    
      8750   159.82958      317.77881     -2244.7255      6.9829429     -2237.7426     -13382.791    
      8800   162.44529      322.97945     -2244.8832      7.097223      -2237.786      -11942.232    
      8850   154.99146      308.15949     -2244.6101      6.7715659     -2237.8386     -13219.591    
      8900   154.13279      306.45225     -2244.614       6.7340506     -2237.8799     -13549.912    
      8950   169.9864       337.97296     -2245.3623      7.4266937     -2237.9356     -12448.469    
      9000   163.44237      324.9619      -2245.126       7.1407857     -2237.9852     -12310.155    
      9050   152.05881      302.3287      -2244.674       6.6434387     -2238.0305     -13371.155    
      9100   159.53477      317.19266     -2245.0431      6.9700627     -2238.0731     -11667.799    
      9150   152.50378      303.2134      -2244.7891      6.6628793     -2238.1262     -13166.174    
      9200   169.74642      337.49582     -2245.5983      7.416209      -2238.1821     -13569.875    
      9250   159.98077      318.07942     -2245.2135      6.9895486     -2238.224      -10582.333    
      9300   158.75781      315.64789     -2245.2067      6.9361176     -2238.2706     -14586.812    
      9350   155.28312      308.73937     -2245.099       6.7843083     -2238.3147     -10193.84     
      9400   147.73379      293.72954     -2244.8109      6.4544789     -2238.3564     -14075.781    
      9450   154.13552      306.45767     -2245.1369      6.7341697     -2238.4028     -11335.8      
      9500   153.02068      304.24113     -2245.1316      6.6854628     -2238.4461     -14260.9      
      9550   154.27912      306.74318     -2245.2396      6.7404436     -2238.4991     -10269.268    
      9600   168.99671      336.00523     -2245.9208      7.3834544     -2238.5373     -13377.692    
      9650   159.0854       316.2992      -2245.5317      6.9504297     -2238.5812     -11356.354    
      9700   146.26655      290.81232     -2245.0143      6.3903752     -2238.624      -14734.381    
      9750   158.00179      314.14474     -2245.57        6.903087      -2238.6669     -10736.659    
      9800   150.01863      298.27234     -2245.2636      6.5543033     -2238.7093     -12427.725    
      9850   162.4194       322.92798     -2245.8538      7.096092      -2238.7578     -9904.136     
      9900   157.39868      312.9456      -2245.6738      6.876737      -2238.797      -10404.435    
      9950   162.21237      322.51636     -2245.9296      7.087047      -2238.8426     -12443.12     
     10000   146.99928      292.26917     -2245.2996      6.4223883     -2238.8773     -10875.539    
     10050   154.08708      306.36137     -2245.6503      6.7320536     -2238.9183     -11640.915    
     10100   155.29957      308.77209     -2245.7463      6.7850272     -2238.9613     -12595.758    
     10150   136.02114      270.44203     -2244.9355      5.942754      -2238.9928     -13141.053    
     10200   144.2313       286.76575     -2245.3301      6.3014551     -2239.0286     -13617.04     
     10250   144.04453      286.39442     -2245.3607      6.2932953     -2239.0674     -14700.683    
     10300   143.75305      285.81489     -2245.385       6.2805606     -2239.1044     -9833.1463    
     10350   153.5612       305.31579     -2245.8475      6.7090778     -2239.1384     -16179.154    
     10400   148.50135      295.25562     -2245.6594      6.4880134     -2239.1714     -8368.2215    
     10450   149.94467      298.12528     -2245.7521      6.5510718     -2239.201      -12643.233    
     10500   151.90988      302.03259     -2245.8741      6.6369319     -2239.2372     -9410.7971    
     10550   148.50643      295.26572     -2245.7596      6.4882352     -2239.2713     -12718.502    
     10600   156.2501       310.66196     -2246.1335      6.8265556     -2239.307      -10686.714    
     10650   156.75553      311.66688     -2246.1915      6.8486379     -2239.3428     -11995.011    
     10700   133.83367      266.09283     -2245.2208      5.8471836     -2239.3736     -11369.896    
     10750   149.63369      297.50699     -2245.9476      6.5374854     -2239.4102     -12494.283    
     10800   156.06145      310.28689     -2246.2594      6.8183138     -2239.4411     -13162.604    
     10850   158.98761      316.10479     -2246.4238      6.9461576     -2239.4777     -11026.459    
     10900   165.16246      328.38182     -2246.7179      7.2159359     -2239.5019     -13480.319    
     10950   155.15143      308.47756     -2246.3144      6.7785551     -2239.5359     -12757.945    
     11000   143.17346      284.66252     -2245.8151      6.2552381     -2239.5599     -11104.219    
     11050   144.25302      286.80895     -2245.8945      6.3024042     -2239.5921     -12694.617    
     11100   148.99792      296.24293     -2246.1347      6.5097087     -2239.625      -12976.375    
     11150   145.70141      289.68869     -2246.0236      6.3656844     -2239.6579     -11136.884    
     11200   134.97375      268.35958     -2245.5781      5.8969937     -2239.6811     -14827.687    
     11250   153.83051      305.85126     -2246.4474      6.7208443     -2239.7266     -10887.143    
     11300   146.91378      292.09915     -2246.1763      6.4186525     -2239.7576     -12194.076    
     11350   137.997        274.3705      -2245.8164      6.0290789     -2239.7874     -13707.772    
     11400   142.92098      284.16054     -2246.0557      6.2442076     -2239.8115     -11370.8      
     11450   151.87765      301.9685      -2246.4759      6.6355238     -2239.8404     -14111.919    
     11500   155.10545      308.38613     -2246.6367      6.776546      -2239.8602     -11298.265    
     11550   163.08313      324.24764     -2247.015       7.1250905     -2239.8899     -10485.142    
     11600   158.32884      314.79499     -2246.8379      6.9173759     -2239.9205     -11874.298    
     11650   144.46847      287.2373      -2246.2695      6.311817      -2239.9577     -12609.885    
     11700   150.48043      299.1905      -2246.5629      6.5744793     -2239.9884     -8853.0239    
     11750   141.18635      280.71168     -2246.1816      6.1684215     -2240.0131     -11270.566    
     11800   155.99739      310.15952     -2246.8594      6.8155151     -2240.0439     -12561.612    
     11850   154.3265       306.8374      -2246.8181      6.7425139     -2240.0756     -11413.987    
     11900   162.39015      322.86983     -2247.1988      7.0948142     -2240.104      -11988.7      
     11950   159.39986      316.92442     -2247.0956      6.9641685     -2240.1314     -12756.109    
     12000   142.9264       284.17132     -2246.399       6.2444443     -2240.1545     -13016.104    
     12050   146.43739      291.15199     -2246.5815      6.3978393     -2240.1837     -12528.476    
     12100   152.62479      303.45399     -2246.8825      6.6681662     -2240.2143     -13231.608    
     12150   153.75448      305.70008     -2246.9545      6.7175222     -2240.237      -10918.904    
     12200   150.26781      298.76777     -2246.8306      6.5651901     -2240.2655     -11204.038    
     12250   156.74602      311.64797     -2247.1417      6.8482224     -2240.2935     -10282.375    
     12300   154.11591      306.4187      -2247.0544      6.7333133     -2240.3211     -13308.533    
     12350   148.0489       294.35606     -2246.8094      6.4682461     -2240.3412     -12561.87     
     12400   155.79463      309.75638     -2247.1757      6.8066562     -2240.369      -12635.177    
     12450   147.2386       292.74499     -2246.8294      6.4328441     -2240.3966     -12948.961    
     12500   140.08508      278.5221      -2246.537       6.1203072     -2240.4167     -13759.248    
     12550   144.83604      287.96813     -2246.7742      6.3278764     -2240.4463     -13355.758    
     12600   143.53356      285.37849     -2246.7371      6.2709711     -2240.4661     -11381.038    
     12650   149.97428      298.18415     -2247.0449      6.5523654     -2240.4925     -11972.33     
     12700   148.84115      295.93123     -2247.0184      6.5028594     -2240.5155     -12490.897    
     12750   143.42268      285.15804     -2246.8025      6.2661269     -2240.5364     -12219.79     
     12800   155.17176      308.51797     -2247.3482      6.7794432     -2240.5687     -9700.558     
     12850   154.19085      306.5677      -2247.3291      6.7365875     -2240.5925     -10388.168    
     12900   149.28989      296.82343     -2247.1316      6.5224647     -2240.6092     -12033.979    
     12950   149.82013      297.87766     -2247.1777      6.5456306     -2240.6321     -12816.607    
     13000   133.67577      265.77888     -2246.4946      5.8402849     -2240.6543     -14229.464    
     13050   144.47051      287.24137     -2246.9869      6.3119064     -2240.675      -12655.911    
     13100   142.78421      283.88861     -2246.9331      6.238232      -2240.6949     -13509.41     
     13150   148.78483      295.81926     -2247.2211      6.5003989     -2240.7207     -13018.308    
     13200   138.28564      274.94438     -2246.7731      6.0416896     -2240.7314     -11615.218    
     13250   143.69259      285.69467     -2247.0318      6.2779189     -2240.7538     -9106.0086    
     13300   132.76643      263.97091     -2246.5765      5.800556      -2240.776      -10891.237    
     13350   149.49286      297.22697     -2247.3165      6.5313323     -2240.7852     -10585.009    
     13400   142.48922      283.30209     -2247.027       6.2253437     -2240.8016     -12511.937    
     13450   139.8833       278.12091     -2246.9284      6.1114913     -2240.8169     -11722.76     
     13500   134.84911      268.11176     -2246.7227      5.8915481     -2240.8311     -12526.888    
     13550   149.42698      297.096       -2247.3774      6.5284542     -2240.849      -11191.643    
     13600   141.94702      282.22408     -2247.0599      6.2016554     -2240.8583     -13644.039    
     13650   141.13803      280.61561     -2247.0432      6.1663105     -2240.8769     -11041.043    
     13700   144.76874      287.83432     -2247.2153      6.3249361     -2240.8903     -15115.02     
     13750   138.81989      276.0066      -2246.9705      6.0650311     -2240.9055     -12756.644    
     13800   138.59806      275.56556     -2246.9759      6.0553394     -2240.9205     -12994.618    
     13850   143.74703      285.80292     -2247.2159      6.2802975     -2240.9356     -13465.709    
     13900   136.00418      270.40831     -2246.8889      5.9420129     -2240.9469     -12868.883    
     13950   132.35747      263.15779     -2246.7426      5.7826885     -2240.9599     -10007.935    
     14000   148.47612      295.20545     -2247.46        6.486911      -2240.9731     -12848.796    
     14050   151.94505      302.10252     -2247.6238      6.6384685     -2240.9854     -13145.456    
     14100   142.87094      284.06105     -2247.2368      6.2420213     -2240.9948     -12151.691    
     14150   140.61119      279.56812     -2247.1572      6.1432927     -2241.0139     -10875.943    
     14200   149.87824      297.9932      -2247.5784      6.5481696     -2241.0302     -8484.3257    
     14250   146.28475      290.8485      -2247.4301      6.3911703     -2241.039      -11630.454    
     14300   138.34246      275.05737     -2247.0861      6.0441725     -2241.0419     -12186.803    
     14350   143.10669      284.52978     -2247.2995      6.2523213     -2241.0471     -8960.1472    
     14400   144.87203      288.03968     -2247.3953      6.3294487     -2241.0658     -11636.021    
     14450   140.67674      279.69846     -2247.2165      6.1461569     -2241.0703     -13863.853    
     14500   146.66227      291.5991      -2247.4919      6.4076641     -2241.0842     -11913.693    
     14550   134.08051      266.58359     -2246.9473      5.8579678     -2241.0894     -8250.741     
     14600   141.47863      281.29281     -2247.2812      6.1811914     -2241.1        -13398.015    
     14650   153.0117       304.22325     -2247.7944      6.6850701     -2241.1093     -13255.395    
     14700   146.98756      292.24586     -2247.5434      6.4218762     -2241.1215     -11971.368    
     14750   142.27113      282.86847     -2247.3423      6.2158154     -2241.1265     -14994.47     
     14800   158.99033      316.11019     -2248.0835      6.9462763     -2241.1372     -12162.805    
     14850   149.67299      297.58513     -2247.6946      6.5392024     -2241.1554     -7630.3567    
     14900   163.43025      324.93779     -2248.3093      7.1402559     -2241.169      -12133.148    
     14950   142.03828      282.40552     -2247.372       6.2056422     -2241.1664     -13723.077    
     15000   139.64944      277.65595     -2247.2864      6.1012742     -2241.1851     -8308.4934    
     15050   148.6269       295.50525     -2247.6857      6.4934988     -2241.1922     -15823.796    
     15100   150.19269      298.6184      -2247.7596      6.5619078     -2241.1977     -10664.466    
     15150   148.09412      294.44595     -2247.6733      6.4702215     -2241.2031     -12761.92     
     15200   152.31193      302.83195     -2247.8655      6.6544973     -2241.211      -13626.255    
     15250   159.29104      316.70807     -2248.1911      6.9594143     -2241.2316     -11369.807    
     15300   146.42307      291.12351     -2247.6281      6.3972134     -2241.2309     -11691.591    
     15350   143.40084      285.11462     -2247.5042      6.2651727     -2241.239      -11686.599    
     15400   147.19645      292.66119     -2247.6773      6.4310026     -2241.2463     -10970.706    
     15450   147.91923      294.09824     -2247.7192      6.4625808     -2241.2566     -14304.007    
     15500   138.27432      274.92188     -2247.3048      6.0411952     -2241.2636     -11114.075    
     15550   142.93166      284.18177     -2247.5257      6.2446741     -2241.281      -10227.839    
     15600   154.34558      306.87532     -2248.0372      6.7433473     -2241.2939     -12500.146    
     15650   144.18948      286.68262     -2247.599       6.2996283     -2241.2994     -11100.759    
     15700   140.67293      279.69088     -2247.4486      6.1459902     -2241.3026     -13470.793    
     15750   150.99885      300.22125     -2247.9093      6.5971291     -2241.3122     -11796.649    
     15800   156.46668      311.09258     -2248.1552      6.8360183     -2241.3192     -12285.334    
     15850   156.52064      311.19986     -2248.1671      6.8383757     -2241.3287     -9969.6621    
     15900   152.55         303.3053      -2248.0021      6.6648987     -2241.3372     -12003.298    
     15950   155.95708      310.07937     -2248.1612      6.8137538     -2241.3475     -10280.098    
     16000   150.35245      298.93606     -2247.9227      6.5688881     -2241.3538     -11045.376    
     16050   141.55009      281.43488     -2247.5464      6.1843132     -2241.362      -12847.318    
     16100   137.93863      274.25445     -2247.3919      6.0265288     -2241.3654     -13233.78     
     16150   141.3748       281.08637     -2247.5444      6.1766549     -2241.3678     -13110.186    
     16200   141.45105      281.23797     -2247.5561      6.1799864     -2241.3761     -10950.78     
     16250   147.20599      292.68015     -2247.8142      6.4314194     -2241.3828     -13923.095    
     16300   143.50282      285.31737     -2247.6598      6.2696281     -2241.3901     -10226.36     
     16350   142.92357      284.16568     -2247.6336      6.2443204     -2241.3893     -14621.831    
     16400   135.82391      270.04988     -2247.332       5.9341368     -2241.3979     -10640.665    
     16450   141.67525      281.68374     -2247.593       6.1897818     -2241.4032     -14027.871    
     16500   135.35792      269.1234      -2247.3207      5.9137781     -2241.4069     -11272.757    
     16550   143.25556      284.82577     -2247.6668      6.2588254     -2241.408      -13087.485    
     16600   150.26496      298.76209     -2247.9809      6.5650654     -2241.4159     -12867.021    
     16650   148.34399      294.94276     -2247.8976      6.4811384     -2241.4164     -10098.088    
     16700   147.06209      292.39404     -2247.8424      6.4251324     -2241.4173     -14725.06     
     16750   139.91783      278.18958     -2247.5356      6.1130002     -2241.4226     -11608.124    
     16800   148.96599      296.17944     -2247.9308      6.5083136     -2241.4225     -11586.293    
     16850   135.0388       268.48892     -2247.316       5.8998358     -2241.4162     -11502.948    
     16900   143.14227      284.60051     -2247.6723      6.2538756     -2241.4184     -12950.651    
     16950   143.32534      284.96449     -2247.6801      6.2618737     -2241.4183     -12755.763    
     17000   152.96734      304.13506     -2248.0966      6.6831321     -2241.4135     -13803.455    
     17050   147.85048      293.96155     -2247.8758      6.459577      -2241.4163     -14317.05     
     17100   151.85698      301.92741     -2248.0491      6.6346207     -2241.4145     -13109.844    
     17150   157.94803      314.03785     -2248.3139      6.9007383     -2241.4131     -13208.724    
     17200   155.26163      308.69666     -2248.1972      6.7833697     -2241.4139     -11642.523    
     17250   145.41678      289.12278     -2247.762       6.353249      -2241.4087     -10853.567    
     17300   161.87303      321.84167     -2248.4856      7.0722211     -2241.4134     -12704.254    
     17350   142.16721      282.66187     -2247.6187      6.2112755     -2241.4074     -13332.986    
     17400   142.57976      283.48211     -2247.6366      6.2292997     -2241.4073     -12757.853    
     17450   145.00203      288.29816     -2247.7382      6.3351286     -2241.4031     -12014.229    
     17500   139.66906      277.69495     -2247.5056      6.1021312     -2241.4034     -13219.109    
     17550   141.89001      282.11072     -2247.6051      6.1991644     -2241.406      -13775.677    
     17600   135.37198      269.15135     -2247.3136      5.9143922     -2241.3993     -10753.807    
     17650   156.11615      310.39564     -2248.2267      6.8207034     -2241.406      -10333.504    
     17700   138.81343      275.99376     -2247.4666      6.0647489     -2241.4018     -11118.201    
     17750   151.99921      302.21019     -2248.0386      6.6408346     -2241.3978     -10588.551    
     17800   150.80439      299.8346      -2247.979       6.5886329     -2241.3903     -12303.36     
     17850   147.60444      293.47236     -2247.8312      6.4488276     -2241.3824     -12444.724    
     17900   144.29775      286.89789     -2247.6854      6.3043586     -2241.381      -10444.241    
     17950   144.67657      287.65107     -2247.704       6.3209093     -2241.3831     -10100.844    
     18000   153.15573      304.50963     -2248.0668      6.691363      -2241.3754     -12801.672    
     18050   158.8896       315.90991     -2248.3147      6.9418753     -2241.3729     -14636.964    
     18100   165.62736      329.30616     -2248.6177      7.2362475     -2241.3814     -11565.188    
     18150   154.86913      307.91627     -2248.1299      6.7662214     -2241.3637     -11025.509    
     18200   147.82555      293.91198     -2247.8229      6.4584879     -2241.3644     -14525.305    
     18250   155.79479      309.75671     -2248.1693      6.8066634     -2241.3627     -11793.035    
     18300   148.30018      294.85565     -2247.8341      6.4792242     -2241.3549     -13067.106    
     18350   150.83472      299.89492     -2247.9455      6.5899583     -2241.3556     -12646.989    
     18400   149.49676      297.23474     -2247.8888      6.5315029     -2241.3573     -12002.792    
     18450   138.51583      275.40207     -2247.4057      6.0517469     -2241.354      -9824.3635    
     18500   138.71013      275.78837     -2247.4089      6.0602355     -2241.3486     -11457.524    
     18550   157.00036      312.15366     -2248.2146      6.8593347     -2241.3552     -12472.852    
     18600   152.53588      303.27722     -2248.0059      6.6642818     -2241.3416     -14574.001    
     18650   158.82221      315.77593     -2248.2741      6.9389313     -2241.3352     -11752.604    
     18700   147.37624      293.01865     -2247.7738      6.4388576     -2241.3349     -12680.239    
     18750   146.98549      292.24174     -2247.7578      6.4217858     -2241.336      -11513.342    
     18800   149.52709      297.29503     -2247.866       6.5328279     -2241.3332     -13464.37     
     18850   143.20366      284.72258     -2247.5826      6.2565579     -2241.326      -14603.022    
     18900   142.14084      282.60944     -2247.5362      6.2101234     -2241.3261     -15160.021    
     18950   147.4968       293.25835     -2247.7655      6.4441248     -2241.3214     -12485.853    
     19000   140.45392      279.25545     -2247.451       6.1364219     -2241.3146     -13601.933    
     19050   148.37923      295.01282     -2247.7962      6.4826779     -2241.3135     -11504.194    
     19100   146.56375      291.40323     -2247.7131      6.4033599     -2241.3098     -13182.389    
     19150   156.34159      310.84387     -2248.1339      6.8305529     -2241.3034     -12854.998    
     19200   154.96524      308.10736     -2248.0655      6.7704204     -2241.2951     -13868.992    
     19250   151.71882      301.65271     -2247.9202      6.6285843     -2241.2916     -11679.842    
     19300   155.47627      309.12341     -2248.0907      6.7927473     -2241.2979     -12090.866    
     19350   143.0474       284.41189     -2247.5375      6.2497307     -2241.2877     -12272.792    
     19400   144.6013       287.50141     -2247.5994      6.3176206     -2241.2818     -15577.91     
     19450   147.085        292.43958     -2247.7093      6.4261331     -2241.2832     -15311.877    
     19500   154.37237      306.9286      -2248.0152      6.7445179     -2241.2707     -12344.282    
     19550   138.93836      276.24215     -2247.3323      6.0702071     -2241.2621     -14921.828    
     19600   157.66056      313.46628     -2248.1552      6.8881785     -2241.2671     -10823.621    
     19650   149.15918      296.56355     -2247.7726      6.516754      -2241.2558     -12711.022    
     19700   161.78376      321.66419     -2248.3271      7.0683212     -2241.2587     -13785.639    
     19750   148.09333      294.44439     -2247.7261      6.4701872     -2241.2559     -12697.644    
     19800   163.92391      325.9193      -2248.4085      7.161824      -2241.2466     -11071.642    
     19850   153.79031      305.77131     -2247.9616      6.7190876     -2241.2425     -11104.948    
     19900   149.1008       296.44748     -2247.7486      6.5142034     -2241.2344     -14052.699    
     19950   140.22214      278.79461     -2247.3514      6.1262954     -2241.2252     -13563.287    
     20000   150.4415       299.11311     -2247.8037      6.5727786     -2241.2309     -14528.541    
     20050   150.97715      300.17811     -2247.8191      6.5961812     -2241.2229     -11384.107    
     20100   140.64665      279.63863     -2247.3605      6.1448421     -2241.2157     -12573.632    
     20150   148.98651      296.22024     -2247.7223      6.5092101     -2241.2131     -14824.633    
     20200   151.26155      300.74356     -2247.8174      6.6086066     -2241.2088     -12393.579    
     20250   149.11588      296.47746     -2247.7181      6.5148623     -2241.2032     -12178.772    
     20300   148.86704      295.98269     -2247.7012      6.5039902     -2241.1972     -14858.453    
     20350   141.15855      280.65642     -2247.3574      6.1672072     -2241.1902     -12424.865    
     20400   156.27959      310.72059     -2248.0166      6.8278441     -2241.1888     -10990.849    
     20450   144.61138      287.52145     -2247.4976      6.3180609     -2241.1796     -11883.421    
     20500   141.20079      280.74039     -2247.3424      6.1690523     -2241.1734     -15125.268    
     20550   147.85291      293.96637     -2247.6323      6.459683      -2241.1726     -12406.842    
     20600   154.58441      307.35019     -2247.9243      6.7537821     -2241.1705     -11476.677    
     20650   164.6139       327.29117     -2248.3595      7.1919697     -2241.1675     -11507.412    
     20700   157.90606      313.9544      -2248.0601      6.8989046     -2241.1612     -12462.763    
     20750   152.26204      302.73277     -2247.8066      6.6523178     -2241.1543     -11545.079    
     20800   152.06033      302.33172     -2247.7916      6.6435052     -2241.1481     -11927.371    
     20850   147.35033      292.96713     -2247.5837      6.4377256     -2241.1459     -13652.869    
     20900   150.59147      299.41127     -2247.717       6.5793305     -2241.1377     -13084.431    
     20950   142.73371      283.78821     -2247.3689      6.2360259     -2241.1329     -12167.215    
     21000   141.50997      281.35512     -2247.3155      6.1825606     -2241.133      -13015.795    
     21050   154.21089      306.60754     -2247.8752      6.737463      -2241.1377     -9347.5732    
     21100   139.54601      277.45031     -2247.2232      6.0967554     -2241.1264     -15039.812    
     21150   138.13394      274.64277     -2247.156       6.0350618     -2241.1209     -12941.904    
     21200   154.4184       307.02011     -2247.8652      6.7465288     -2241.1187     -13182.415    
     21250   152.43183      303.07034     -2247.7716      6.6597357     -2241.1119     -13195.77     
     21300   146.77023      291.81376     -2247.518       6.4123811     -2241.1056     -12920.476    
     21350   146.94425      292.15974     -2247.52        6.4199838     -2241.1        -13196.525    
     21400   143.28464      284.88359     -2247.3531      6.2600959     -2241.093      -11381.041    
     21450   150.27272      298.77752     -2247.6521      6.5654043     -2241.0867     -10331.647    
     21500   142.57912      283.48084     -2247.3109      6.2292716     -2241.0816     -10069.267    
     21550   137.09892      272.58491     -2247.0625      5.989842      -2241.0727     -11118.726    
     21600   152.77111      303.74492     -2247.7505      6.6745591     -2241.0759     -11672.038    
     21650   140.44126      279.23026     -2247.2043      6.1358685     -2241.0684     -12884.809    
     21700   140.52805      279.40283     -2247.2         6.1396606     -2241.0603     -13145.621    
     21750   157.63925      313.42393     -2247.9511      6.8872478     -2241.0638     -13495.716    
     21800   152.72906      303.6613      -2247.7275      6.6727217     -2241.0548     -12842.202    
     21850   150.82288      299.87138     -2247.6349      6.589441      -2241.0455     -14811.788    
     21900   141.06851      280.47738     -2247.2071      6.163273      -2241.0438     -11631.549    
     21950   148.64817      295.54754     -2247.5352      6.4944279     -2241.0408     -10805.926    
     22000   147.27289      292.81316     -2247.4645      6.4343422     -2241.0301     -12563.897    
     22050   142.36153      283.04822     -2247.2407      6.2197651     -2241.0209     -16084.839    
     22100   150.6629       299.5533      -2247.6043      6.5824515     -2241.0219     -10400.595    
     22150   136.39006      271.17554     -2246.974       5.9588722     -2241.0151     -12172.362    
     22200   147.25736      292.78228     -2247.4442      6.4336636     -2241.0106     -12356.176    
     22250   150.06417      298.36288     -2247.5608      6.556293      -2241.0045     -12476.812    
     22300   148.17311      294.603       -2247.4689      6.4736725     -2240.9952     -11131.732    
     22350   161.57113      321.24142     -2248.0484      7.0590312     -2240.9894     -12074.989    
     22400   158.35441      314.84582     -2247.8917      6.9184928     -2240.9732     -14853.906    
     22450   162.81091      323.70639     -2248.0858      7.1131969     -2240.9726     -10813.141    
     22500   155.53014      309.23051     -2247.7583      6.7951007     -2240.9632     -11622.495    
     22550   147.4892       293.24324     -2247.3998      6.4437928     -2240.956      -12094.384    
     22600   166.50416      331.04945     -2248.2288      7.274555      -2240.9542     -10665.606    
     22650   145.47648      289.24148     -2247.2979      6.3558572     -2240.9421     -13318.667    
     22700   142.74334      283.80736     -2247.1714      6.2364466     -2240.9349     -9088.0598    
     22750   146.12881      290.53846     -2247.3129      6.3843574     -2240.9286     -10679.563    
     22800   146.07879      290.439       -2247.3042      6.3821718     -2240.9221     -11590.793    
     22850   149.29846      296.84047     -2247.4339      6.5228392     -2240.911      -9499.6893    
     22900   157.369        312.8866      -2247.7811      6.8754405     -2240.9057     -11098.295    
     22950   146.64588      291.56651     -2247.3084      6.406948      -2240.9015     -11977.45     
     23000   153.68138      305.55475     -2247.6129      6.7143286     -2240.8986     -11988.436    
     23050   161.32971      320.76142     -2247.9396      7.0484835     -2240.8911     -12031.676    
     23100   156.05726      310.27855     -2247.7082      6.8181306     -2240.8901     -10017.22     
     23150   142.17044      282.66829     -2247.0919      6.2114165     -2240.8805     -13056.206    
     23200   158.99856      316.12654     -2247.8237      6.9466357     -2240.8771     -11577.134    
     23250   162.1436       322.37962     -2247.9566      7.0840422     -2240.8725     -11691.673    
     23300   140.2525       278.85498     -2246.9899      6.1276219     -2240.8623     -13168.918    
     23350   144.34769      286.99718     -2247.1691      6.3065405     -2240.8625     -13648.635    
     23400   151.14288      300.50761     -2247.4404      6.6034218     -2240.837      -12230.939    
     23450   149.39238      297.02719     -2247.3708      6.5269423     -2240.8438     -10842.276    
     23500   149.01835      296.28354     -2247.3473      6.510601      -2240.8367     -13432.221    
     23550   152.51214      303.23002     -2247.5021      6.6632445     -2240.8388     -10036.193    
     23600   146.8003       291.87353     -2247.2444      6.4136945     -2240.8307     -11767.416    
     23650   145.16136      288.61494     -2247.1637      6.3420896     -2240.8217     -13628.087    
     23700   167.68309      333.39343     -2248.1486      7.3260622     -2240.8226     -12339.828    
     23750   139.11981      276.60292     -2246.8853      6.0781347     -2240.8072     -13673.411    
     23800   158.37083      314.87848     -2247.7338      6.9192104     -2240.8145     -11738.33     
     23850   144.05526      286.41575     -2247.0968      6.293764      -2240.8031     -15107.425    
     23900   147.35033      292.96712     -2247.2361      6.4377254     -2240.7984     -15323.801    
     23950   140.44828      279.24423     -2246.9316      6.1361753     -2240.7954     -13210.053    
     24000   146.48819      291.25298     -2247.1861      6.4000585     -2240.7861     -13676.131    
     24050   154.22585      306.63728     -2247.5294      6.7381165     -2240.7913     -13202.495    
     24100   138.38394      275.13984     -2246.8252      6.0459847     -2240.7792     -12454.581    
     24150   143.02105      284.35949     -2247.0265      6.2485794     -2240.7779     -14510        
     24200   149.84393      297.92499     -2247.3226      6.5466707     -2240.7759     -14394.938    
     24250   152.80407      303.81045     -2247.4503      6.675999      -2240.7743     -14373.186    
     24300   155.10209      308.37944     -2247.5457      6.7763992     -2240.7693     -14092.838    
     24350   147.74237      293.74659     -2247.2275      6.4548536     -2240.7727     -10154.937    
     24400   148.38026      295.01486     -2247.247       6.4827228     -2240.7643     -15183.771    
     24450   155.53391      309.23801     -2247.5587      6.7952654     -2240.7634     -10277.989    
     24500   154.4875       307.15749     -2247.5089      6.7495478     -2240.7594     -13259.896    
     24550   163.55712      325.19005     -2247.9047      7.1457992     -2240.7589     -14093.1      
     24600   163.68442      325.44314     -2247.9098      7.1513606     -2240.7584     -13074.229    
     24650   149.4428       297.12746     -2247.2754      6.5291455     -2240.7462     -12418.72     
     24700   159.38316      316.89123     -2247.7086      6.963439      -2240.7452     -12664.927    
     24750   157.58063      313.30737     -2247.6272      6.8846865     -2240.7425     -11270.657    
     24800   161.51379      321.12743     -2247.7946      7.0565262     -2240.7381     -11816.044    
     24850   161.06467      320.23446     -2247.7859      7.0369039     -2240.749      -10638.792    
     24900   150.70608      299.63915     -2247.3303      6.5843379     -2240.746      -13381.072    
     24950   156.55411      311.2664      -2247.5884      6.8398378     -2240.7485     -13057.289    
     25000   160.66326      319.43637     -2247.7562      7.0193666     -2240.7368     -12949.605    
     25050   160.19698      318.50929     -2247.7371      6.9989947     -2240.7381     -11572.191    
     25100   149.81905      297.87552     -2247.2753      6.5455837     -2240.7297     -10461.725    
     25150   142.36487      283.05485     -2246.9445      6.219911      -2240.7246     -10387.977    
     25200   149.66271      297.56469     -2247.2667      6.5387534     -2240.728      -10890.212    
     25250   147.40954      293.08486     -2247.1605      6.4403124     -2240.7202     -12044.336    
     25300   143.37006      285.0534      -2246.9881      6.2638275     -2240.7243     -10909.174    
     25350   149.70254      297.64388     -2247.2708      6.5404935     -2240.7303     -10915.425    
     25400   149.13104      296.50759     -2247.2392      6.5155244     -2240.7236     -13862.891    
     25450   151.24364      300.70794     -2247.3321      6.6078239     -2240.7243     -13630.371    
     25500   161.90438      321.904       -2247.8006      7.0735908     -2240.727      -10982.468    
     25550   152.12451      302.45932     -2247.3726      6.6463091     -2240.7263     -12552.643    
     25600   147.87837      294.01699     -2247.1851      6.4607953     -2240.7243     -10253.097    
     25650   151.74836      301.71144     -2247.3598      6.629875      -2240.7299     -13195.32     
     25700   144.88731      288.07006     -2247.0593      6.3301162     -2240.7292     -11533.066    
     25750   141.13158      280.6028      -2246.8993      6.1660289     -2240.7333     -10687.802    
     25800   142.97706      284.27203     -2246.9782      6.2466574     -2240.7315     -12329.706    
     25850   146.32907      290.93662     -2247.1316      6.3931067     -2240.7385     -11454.091    
     25900   161.4262       320.95327     -2247.7954      7.0526992     -2240.7427     -12272.001    
     25950   147.83372      293.92822     -2247.1932      6.4588448     -2240.7343     -9765.1217    
     26000   156.20923      310.5807      -2247.5671      6.82477       -2240.7424     -8118.646     
     26050   154.61878      307.41852     -2247.4942      6.7552837     -2240.7389     -11677.223    
     26100   150.2524       298.73712     -2247.3034      6.5645166     -2240.7388     -14214.339    
     26150   142.89632      284.1115      -2246.9778      6.2431299     -2240.7346     -11745.089    
     26200   157.15179      312.45473     -2247.6048      6.8659504     -2240.7388     -14300.501    
     26250   164.06985      326.20947     -2247.9181      7.1682003     -2240.7499     -12940.018    
     26300   151.50799      301.23353     -2247.3689      6.6193732     -2240.7495     -11838.386    
     26350   163.77576      325.62474     -2247.9001      7.1553512     -2240.7447     -11209.177    
     26400   159.27188      316.66997     -2247.7056      6.958577      -2240.7471     -9545.7866    
     26450   150.38689      299.00452     -2247.3175      6.5703924     -2240.7472     -11672.425    
     26500   151.97836      302.16874     -2247.3791      6.6399239     -2240.7391     -10534.324    
     26550   157.90159      313.94551     -2247.6418      6.8987092     -2240.7431     -12602.737    
     26600   167.23899      332.51045     -2248.053       7.3066594     -2240.7463     -14081.89     
     26650   156.20726      310.57678     -2247.5762      6.8246839     -2240.7515     -10951.281    
     26700   148.04654      294.35136     -2247.2162      6.4681429     -2240.7481     -11027.18     
     26750   157.04326      312.23895     -2247.6118      6.8612089     -2240.7506     -14970.449    
     26800   144.20195      286.70742     -2247.0587      6.3001732     -2240.7586     -12031.059    
     26850   155.75377      309.67514     -2247.5754      6.8048712     -2240.7705     -12119.515    
     26900   142.11669      282.56141     -2246.9813      6.209068      -2240.7723     -12475.752    
     26950   150.92939      300.08313     -2247.3704      6.5940942     -2240.7764     -10627.701    
     27000   134.1427       266.70725     -2246.6413      5.8606849     -2240.7806     -12826.087    
     27050   144.62744      287.55338     -2247.1092      6.3187626     -2240.7904     -15332.251    
     27100   144.22164      286.74656     -2247.0982      6.3010332     -2240.7972     -12828.036    
     27150   151.12273      300.46755     -2247.4081      6.6025414     -2240.8055     -14560.339    
     27200   162.64757      323.38164     -2247.9224      7.1060609     -2240.8163     -11239.8      
     27250   157.26278      312.67541     -2247.6875      6.8707998     -2240.8167     -13240.053    
     27300   149.48579      297.21291     -2247.3592      6.5310233     -2240.8282     -13071.419    
     27350   160.21246      318.54006     -2247.8405      6.9996708     -2240.8408     -13380.952    
     27400   141.85426      282.03965     -2247.0357      6.1976027     -2240.8381     -12491.889    
     27450   157.49431      313.13575     -2247.7284      6.8809154     -2240.8474     -14122.09     
     27500   139.84826      278.05125     -2246.9632      6.1099606     -2240.8533     -14204.596    
     27550   160.72648      319.56205     -2247.8875      7.0221283     -2240.8653     -11145.341    
     27600   147.52501      293.31443     -2247.3148      6.4453573     -2240.8695     -11445.297    
     27650   156.02242      310.20928     -2247.7001      6.8166083     -2240.8834     -9716.8457    
     27700   159.13667      316.40115     -2247.8515      6.9526698     -2240.8989     -9289.0649    
     27750   161.13276      320.36984     -2247.9422      7.0398788     -2240.9023     -13203.912    
     27800   140.76346      279.87088     -2247.0616      6.1499456     -2240.9117     -11545.281    
     27850   157.44549      313.03867     -2247.8002      6.8787821     -2240.9214     -13284.414    
     27900   148.426        295.10581     -2247.4052      6.4847213     -2240.9205     -13747.378    
     27950   156.93426      312.02224     -2247.793       6.8564468     -2240.9365     -11213.552    
     28000   161.25136      320.60564     -2247.9913      7.0450603     -2240.9462     -12257.716    
     28050   150.19989      298.63272     -2247.5144      6.5622224     -2240.9522     -10025.192    
     28100   157.37949      312.90745     -2247.8406      6.8758986     -2240.9647     -10427.605    
     28150   148.73867      295.72747     -2247.4647      6.4983818     -2240.9663     -14095.839    
     28200   143.39345      285.09992     -2247.2492      6.2648498     -2240.9843     -12140.913    
     28250   149.81386      297.86521     -2247.5402      6.5453569     -2240.9949     -14446.007    
     28300   149.34312      296.92926     -2247.5218      6.5247902     -2240.997      -10754.112    
     28350   144.92969      288.15432     -2247.3512      6.3319678     -2241.0192     -12879.46     
     28400   156.14248      310.44799     -2247.8569      6.821854      -2241.035      -10588.783    
     28450   147.40955      293.08487     -2247.4797      6.4403127     -2241.0394     -12000.227    
     28500   154.08339      306.35403     -2247.7773      6.7318923     -2241.0454     -16877.213    
     28550   143.76509      285.83882     -2247.3305      6.2810864     -2241.0494     -10942.238    
     28600   144.56953      287.43825     -2247.3825      6.3162327     -2241.0662     -14012.999    
     28650   141.7417       281.81584     -2247.269       6.1926846     -2241.0763     -12964.858    
     28700   142.70194      283.72504     -2247.3162      6.2346378     -2241.0816     -11281.194    
     28750   155.26605      308.70545     -2247.8801      6.7835628     -2241.0966     -12767.414    
     28800   146.57371      291.42302     -2247.5046      6.403795      -2241.1008     -13563.495    
     28850   161.04846      320.20224     -2248.1544      7.0361959     -2241.1182     -10003.697    
     28900   152.48487      303.1758      -2247.7822      6.6620531     -2241.1201     -11207.209    
     28950   145.03552      288.36475     -2247.472       6.3365917     -2241.1354     -9550.4136    
     29000   157.94388      314.02959     -2248.0471      6.9005567     -2241.1465     -13690.277    
     29050   146.45028      291.17761     -2247.548       6.3984023     -2241.1496     -12038.559    
     29100   150.7117       299.65032     -2247.7551      6.5845834     -2241.1705     -10652.92     
     29150   131.66353      261.77807     -2246.9319      5.7523702     -2241.1796     -13435.9      
     29200   147.7667       293.79496     -2247.6394      6.4559165     -2241.1835     -13552.7      
     29250   134.75449      267.92362     -2247.0829      5.8874139     -2241.1955     -9667.1147    
     29300   140.90706      280.15639     -2247.3551      6.1562194     -2241.1988     -12158.612    
     29350   143.35273      285.01896     -2247.479       6.2630707     -2241.2159     -10123.957    
     29400   145.93084      290.14485     -2247.598       6.375708      -2241.2223     -14424.22     
     29450   152.87355      303.9486      -2247.9117      6.6790347     -2241.2327     -13987.965    
     29500   139.21343      276.78906     -2247.3255      6.0822249     -2241.2433     -14364.45     
     29550   143.18968      284.69478     -2247.505       6.2559471     -2241.2491     -11588.396    
     29600   150.07898      298.39233     -2247.8173      6.55694       -2241.2604     -12748.074    
     29650   152.27912      302.76673     -2247.9164      6.6530641     -2241.2633     -12706.236    
     29700   140.36773      279.08408     -2247.4044      6.1326562     -2241.2717     -13106.844    
     29750   157.13024      312.41189     -2248.1509      6.865009      -2241.2859     -12481.428    
     29800   160.58835      319.28742     -2248.3084      7.0160935     -2241.2923     -13752.86     
     29850   153.31913      304.8345      -2247.9967      6.6985017     -2241.2982     -11498.633    
     29900   161.98165      322.05763     -2248.387       7.0769666     -2241.31       -10241.893    
     29950   154.6603       307.50108     -2248.0689      6.7570977     -2241.3118     -12187.18     
     30000   145.2657       288.82239     -2247.6686      6.3466482     -2241.3219     -11265.751    
     30050   155.52595      309.22219     -2248.1288      6.7949179     -2241.3339     -11487.825    
     30100   133.76741      265.96109     -2247.1798      5.8442886     -2241.3356     -13607.11     
     30150   145.54392      289.37556     -2247.7026      6.3588035     -2241.3438     -12384.454    
     30200   138.73545      275.83872     -2247.411       6.061342      -2241.3496     -11734.383    
     30250   151.66457      301.54485     -2247.9867      6.6262142     -2241.3605     -12612.899    
     30300   147.1566       292.58194     -2247.8022      6.4292614     -2241.3729     -11436.716    
     30350   138.8585       276.08338     -2247.445       6.0667182     -2241.3782     -12876.216    
     30400   140.74482      279.83381     -2247.5348      6.1491311     -2241.3857     -14886.119    
     30450   143.38412      285.08136     -2247.6535      6.264442      -2241.389      -9348.9615    
     30500   146.77752      291.82825     -2247.8157      6.4126996     -2241.403      -12657.998    
     30550   138.05153      274.47892     -2247.4348      6.0314615     -2241.4033     -11793.837    
     30600   140.02425      278.40116     -2247.5299      6.1176497     -2241.4123     -15063.379    
     30650   153.8261       305.84248     -2248.1393      6.7206513     -2241.4187     -13011.764    
     30700   143.21537      284.74586     -2247.681       6.2570694     -2241.424      -12264.803    
     30750   145.69012      289.66624     -2247.7912      6.3651911     -2241.426      -12476.548    
     30800   149.19935      296.64341     -2247.9441      6.518509      -2241.4256     -10846.99     
     30850   144.65075      287.59973     -2247.7555      6.3197811     -2241.4357     -12929.333    
     30900   144.83649      287.96901     -2247.7649      6.3278958     -2241.437      -11146.303    
     30950   148.83994      295.92882     -2247.9396      6.5028064     -2241.4368     -12205.924    
     31000   152.31219      302.83247     -2248.0934      6.6545087     -2241.4389     -14537.175    
     31050   143.88443      286.07611     -2247.726       6.2863007     -2241.4397     -13680.226    
     31100   154.85509      307.88835     -2248.21        6.7656079     -2241.4444     -13316.322    
     31150   147.93507      294.12974     -2247.9146      6.4632729     -2241.4513     -13485.966    
     31200   136.49731      271.38877     -2247.4157      5.9635578     -2241.4521     -10080.98     
     31250   137.16822      272.7227      -2247.4432      5.9928698     -2241.4503     -12955.707    
     31300   146.59793      291.47117     -2247.859       6.404853      -2241.4542     -13513.935    
     31350   145.69244      289.67086     -2247.8226      6.3652924     -2241.4573     -12104.32     
     31400   150.56266      299.35399     -2248.0407      6.5780719     -2241.4626     -11942.64     
     31450   148.65725      295.5656      -2247.9639      6.4948248     -2241.4691     -10141.342    
     31500   156.87188      311.8982      -2248.3218      6.8537211     -2241.4681     -11873.721    
     31550   140.53155      279.40978     -2247.6059      6.1398133     -2241.4661     -11328.967    
     31600   142.00635      282.34204     -2247.6678      6.2042474     -2241.4636     -11216.353    
     31650   148.61487      295.48132     -2247.9573      6.492973      -2241.4643     -9180.0506    
     31700   155.93785      310.04113     -2248.2782      6.8129135     -2241.4653     -13477.563    
     31750   146.9151       292.10178     -2247.8892      6.4187101     -2241.4705     -13006.907    
     31800   149.16494      296.57499     -2247.9875      6.5170055     -2241.4705     -9928.2681    
     31850   154.87341      307.92479     -2248.2331      6.7664084     -2241.4667     -12939.396    
     31900   155.55995      309.28978     -2248.263       6.796403      -2241.4666     -13372.408    
     31950   157.84019      313.82344     -2248.3612      6.8960267     -2241.4651     -8594.6178    
     32000   136.72105      271.83362     -2247.4308      5.973333      -2241.4575     -13268.833    
     32050   144.7013       287.70023     -2247.7786      6.3219895     -2241.4566     -10904.039    
     32100   133.12406      264.68195     -2247.2607      5.8161806     -2241.4445     -13989.247    
     32150   132.92086      264.27794     -2247.2368      5.8073029     -2241.4295     -12811.678    
     32200   143.35212      285.01774     -2247.6928      6.2630439     -2241.4297     -11842.032    
     32250   148.92114      296.09026     -2247.9356      6.5063539     -2241.4293     -10704.735    
     32300   153.89412      305.97772     -2248.1404      6.7236232     -2241.4167     -11184.682    
     32350   154.13789      306.4624      -2248.1521      6.7342737     -2241.4178     -10576.287    
     32400   159.12332      316.37461     -2248.3673      6.9520867     -2241.4152     -12372.416    
     32450   131.33414      261.12317     -2247.1482      5.7379791     -2241.4102     -8896.7054    
     32500   159.46001      317.04401     -2248.3606      6.9667963     -2241.3939     -12930.848    
     32550   140.33686      279.02271     -2247.5225      6.1313077     -2241.3912     -11378.498    
     32600   139.41429      277.18842     -2247.4788      6.0910006     -2241.3878     -12770.177    
     32650   146.95645      292.18401     -2247.8033      6.420517      -2241.3828     -12091.276    
     32700   137.94693      274.27095     -2247.407       6.0268914     -2241.3801     -11725.572    
     32750   142.37425      283.07352     -2247.6039      6.220321      -2241.3835     -12486.161    
     32800   143.88401      286.07527     -2247.6612      6.2862823     -2241.3749     -12307.444    
     32850   154.09588      306.37887     -2248.1055      6.732438      -2241.3731     -11716.248    
[...]
    192000   148.78144      295.8125      -2265.6576      6.5002504     -2259.1573     -30103.377    
    192050   143.61794      285.54625     -2265.4291      6.2746574     -2259.1545     -29197.131    
    192100   151.55389      301.3248      -2265.7826      6.6213788     -2259.1612     -25334.87     
    192150   152.74613      303.69525     -2265.828       6.6734677     -2259.1545     -29128.292    
    192200   134.98879      268.38949     -2265.0428      5.8976508     -2259.1452     -29268.165    
    192250   140.08461      278.52116     -2265.2766      6.1202865     -2259.1563     -26258.117    
    192300   143.75176      285.81232     -2265.4295      6.2805041     -2259.149      -32626.141    
    192350   139.05977      276.48353     -2265.2188      6.0755113     -2259.1432     -28341.109    
    192400   154.42882      307.04082     -2265.8998      6.746984      -2259.1529     -29238.138    
    192450   150.96562      300.15518     -2265.742       6.5956773     -2259.1463     -27928.282    
    192500   149.19121      296.62722     -2265.659       6.5181533     -2259.1409     -28863.341    
    192550   145.44386      289.17661     -2265.4941      6.3544319     -2259.1396     -28579.364    
    192600   150.44721      299.12445     -2265.7137      6.573028      -2259.1407     -28187.315    
    192650   141.42766      281.19146     -2265.3125      6.1789643     -2259.1335     -25049.925    
    192700   157.70627      313.55718     -2266.0303      6.8901758     -2259.1402     -26160.362    
    192750   149.85877      297.9545      -2265.6793      6.5473192     -2259.132      -27006.512    
    192800   156.35481      310.87015     -2265.9707      6.8311305     -2259.1396     -28525.068    
    192850   127.273        253.04868     -2264.6917      5.5605485     -2259.1311     -29559.495    
    192900   157.17588      312.50264     -2265.9918      6.8670031     -2259.1248     -28641.728    
    192950   152.27734      302.76318     -2265.7827      6.6529861     -2259.1297     -29687.149    
    193000   162.45008      322.98897     -2266.2289      7.0974323     -2259.1314     -30581.455    
    193050   154.97392      308.12461     -2265.8989      6.7707995     -2259.1281     -28072.266    
    193100   151.12522      300.4725      -2265.7255      6.6026502     -2259.1228     -28753.737    
    193150   150.62774      299.48338     -2265.6971      6.5809151     -2259.1162     -28185.221    
    193200   150.94902      300.12217     -2265.7105      6.5949519     -2259.1156     -30181.501    
    193250   142.40209      283.12886     -2265.3354      6.2215372     -2259.1138     -27128.421    
    193300   140.44423      279.23618     -2265.2435      6.1359986     -2259.1075     -28663.744    
    193350   142.20274      282.73251     -2265.3201      6.2128277     -2259.1072     -30407.912    
    193400   158.57839      315.29115     -2266.0391      6.9282786     -2259.1109     -27454.704    
    193450   144.04235      286.39008     -2265.3918      6.2931999     -2259.0986     -28504.86     
    193500   159.8708       317.86076     -2266.0832      6.9847437     -2259.0985     -29805.501    
    193550   150.50122      299.23183     -2265.6736      6.5753874     -2259.0982     -29127.827    
    193600   146.03495      290.35184     -2265.468       6.3802567     -2259.0877     -26717.685    
    193650   139.88279      278.11989     -2265.1901      6.111469      -2259.0786     -31232.878    
    193700   137.22627      272.83811     -2265.0702      5.9954059     -2259.0748     -28625.727    
    193750   139.74441      277.84478     -2265.1804      6.1054235     -2259.075      -25208.91     
    193800   151.52626      301.26986     -2265.6927      6.6201715     -2259.0726     -27174.094    
    193850   152.51912      303.2439      -2265.7329      6.6635495     -2259.0693     -28880.42     
    193900   132.78185      264.00156     -2264.8594      5.8012296     -2259.0581     -25499.775    
    193950   166.38331      330.80916     -2266.3389      7.2692748     -2259.0696     -25543.615    
    194000   157.66862      313.48231     -2265.9644      6.8885308     -2259.0759     -28216.807    
    194050   144.1906       286.68483     -2265.3634      6.2996769     -2259.0637     -26138.999    
    194100   139.17374      276.71015     -2265.1404      6.0804909     -2259.0599     -28363.228    
    194150   150.91735      300.05921     -2265.6465      6.5935685     -2259.053      -29687.904    
    194200   147.32475      292.91628     -2265.4944      6.4366081     -2259.0578     -28650.861    
    194250   157.34521      312.83931     -2265.9216      6.8744012     -2259.0472     -27487.341    
    194300   150.67904      299.58539     -2265.6261      6.5831566     -2259.043      -26315.156    
    194350   160.43395      318.98043     -2266.0588      7.0093477     -2259.0495     -27537.473    
    194400   143.54907      285.40934     -2265.3219      6.2716489     -2259.0503     -33185.112    
    194450   157.55012      313.24672     -2265.9357      6.8833537     -2259.0524     -32203.363    
    194500   148.02896      294.31639     -2265.5098      6.4673746     -2259.0424     -30766.017    
    194550   152.74817      303.69931     -2265.7074      6.6735568     -2259.0339     -31528.176    
    194600   155.12777      308.4305      -2265.8172      6.7775212     -2259.0396     -24849.546    
    194650   164.40579      326.87739     -2266.2043      7.1828771     -2259.0214     -27959.221    
    194700   148.05887      294.37587     -2265.4907      6.4686814     -2259.022      -24829.578    
    194750   155.55213      309.27424     -2265.8169      6.7960617     -2259.0209     -27081.666    
    194800   144.89926      288.09381     -2265.344       6.3306382     -2259.0134     -30506.068    
    194850   147.64417      293.55135     -2265.4655      6.4505634     -2259.0149     -29548.187    
    194900   146.52589      291.32794     -2265.4036      6.4017057     -2259.0019     -29308.031    
    194950   148.51382      295.28041     -2265.4927      6.4885581     -2259.0041     -27283.283    
    195000   160.07837      318.27347     -2265.9918      6.9938128     -2258.9979     -25218.099    
    195050   144.8418       287.97958     -2265.3335      6.328128      -2259.0054     -26207.412    
    195100   152.20603      302.62139     -2265.6473      6.6498704     -2258.9974     -25548.967    
    195150   150.34816      298.92752     -2265.5693      6.5687004     -2259.0006     -29282.267    
    195200   162.44073      322.97039     -2266.0951      7.097024      -2258.998      -27496.133    
    195250   152.60118      303.40706     -2265.6586      6.6671349     -2258.9915     -28034.139    
    195300   144.64021      287.57877     -2265.3192      6.3193205     -2258.9999     -29025.533    
    195350   152.56819      303.34147     -2265.665       6.6656935     -2258.9993     -30195.259    
    195400   149.67838      297.59583     -2265.5346      6.5394377     -2258.9952     -29329.032    
    195450   150.41755      299.06548     -2265.5566      6.5717321     -2258.9849     -28422.397    
    195500   147.13561      292.54022     -2265.4073      6.4283444     -2258.979      -33112.642    
    195550   149.22045      296.68536     -2265.4936      6.5194308     -2258.9742     -30469.875    
    195600   161.07679      320.25856     -2266.0124      7.0374335     -2258.975      -25486.123    
    195650   148.37885      295.01207     -2265.4469      6.4826615     -2258.9642     -29804.338    
    195700   139.67839      277.7135      -2265.0592      6.1025389     -2258.9566     -28891.136    
    195750   161.26937      320.64145     -2266.0041      7.0458472     -2258.9583     -30567.769    
    195800   146.65437      291.58339     -2265.3659      6.4073189     -2258.9586     -29944.412    
    195850   166.21751      330.47953     -2266.2163      7.2620314     -2258.9543     -28571.969    
    195900   153.66245      305.51711     -2265.6726      6.7135016     -2258.9591     -28449.568    
    195950   149.74571      297.7297      -2265.4953      6.5423793     -2258.9529     -28480.933    
    196000   157.31883      312.78684     -2265.818       6.8732484     -2258.9447     -31543.124    
    196050   150.259        298.75024     -2265.5043      6.5648049     -2258.9395     -29762.269    
    196100   160.78169      319.67184     -2265.9594      7.0245408     -2258.9348     -28325.371    
    196150   154.16319      306.5127      -2265.6629      6.735379      -2258.9276     -28180.847    
    196200   156.45973      311.07876     -2265.7543      6.8357146     -2258.9186     -25953.989    
    196250   147.75504      293.77178     -2265.37        6.4554071     -2258.9146     -29437.06     
    196300   155.15138      308.47745     -2265.683       6.7785528     -2258.9045     -23392.583    
    196350   147.59452      293.45264     -2265.3497      6.4483942     -2258.9013     -25519.783    
    196400   148.96524      296.17795     -2265.3969      6.5082808     -2258.8886     -23879.57     
    196450   151.29394      300.80796     -2265.491       6.6100216     -2258.881      -26628.786    
    196500   162.84913      323.78239     -2265.982       7.114867      -2258.8671     -29793.095    
    196550   150.79166      299.8093      -2265.4526      6.588077      -2258.8646     -27138.673    
    196600   161.80021      321.69689     -2265.9289      7.0690396     -2258.8599     -27308.084    
    196650   157.18882      312.52835     -2265.7133      6.8675682     -2258.8458     -32434.811    
    196700   159.2661       316.65848     -2265.8027      6.9583245     -2258.8444     -30991.673    
    196750   134.55527      267.52753     -2264.7059      5.8787101     -2258.8272     -26126.9      
    196800   153.84387      305.87782     -2265.5329      6.7214279     -2258.8115     -32456.173    
    196850   154.2173       306.62029     -2265.5392      6.7377431     -2258.8015     -29117.257    
    196900   140.04237      278.43719     -2264.904       6.1184414     -2258.7855     -29712.76     
    196950   151.31227      300.8444      -2265.3861      6.6108224     -2258.7753     -28420.387    
    197000   144.94634      288.18742     -2265.0885      6.3326952     -2258.7558     -27574.146    
    197050   147.51647      293.29744     -2265.1868      6.4449839     -2258.7418     -23325.813    
    197100   158.34809      314.83326     -2265.6531      6.9182168     -2258.7349     -28945.959    
    197150   150.01         298.25518     -2265.2698      6.5539262     -2258.7159     -26076.58     
    197200   156.69066      311.5379      -2265.5512      6.8458039     -2258.7054     -30195.612    
    197250   148.08585      294.42952     -2265.1642      6.4698603     -2258.6944     -29616.715    
    197300   151.03637      300.29584     -2265.279       6.5987683     -2258.6802     -29711.739    
    197350   155.44854      309.06828     -2265.449       6.7915357     -2258.6574     -29580.676    
    197400   149.5958       297.43165     -2265.1729      6.5358299     -2258.6371     -28522.051    
    197450   136.29841      270.99331     -2264.5696      5.9548678     -2258.6147     -22606.574    
    197500   155.66813      309.50486     -2265.4046      6.8011294     -2258.6035     -27543.07     
    197550   150.33252      298.89643     -2265.1544      6.5680173     -2258.5863     -25671.536    
    197600   158.40126      314.93899     -2265.4834      6.92054       -2258.5629     -24982.66     
    197650   162.37278      322.8353      -2265.6473      7.0940554     -2258.5533     -26848.555    
    197700   150.30061      298.83298     -2265.0968      6.566623      -2258.5301     -30564.604    
    197750   151.716        301.64711     -2265.1399      6.6284613     -2258.5114     -31373.492    
    197800   141.77624      281.88452     -2264.684       6.1941938     -2258.4898     -24655.317    
    197850   156.9589       312.07122     -2265.3328      6.8575231     -2258.4753     -26788.378    
    197900   155.17324      308.52092     -2265.2359      6.779508      -2258.4564     -27786.627    
    197950   154.83214      307.84273     -2265.196       6.7646053     -2258.4314     -26721.577    
    198000   153.27375      304.74428     -2265.1031      6.6965193     -2258.4066     -29254.336    
    198050   155.49116      309.153       -2265.1817      6.7933975     -2258.3883     -25677.479    
    198100   140.95287      280.24748     -2264.5175      6.1582211     -2258.3593     -26221.001    
    198150   161.22115      320.54557     -2265.3998      7.0437404     -2258.3561     -27634.386    
    198200   144.81228      287.92088     -2264.6642      6.3268382     -2258.3374     -26870.556    
    198250   153.25636      304.7097      -2265.017       6.6957594     -2258.3213     -28855.223    
    198300   147.29855      292.86417     -2264.7319      6.435463      -2258.2965     -30543.765    
    198350   161.20621      320.51587     -2265.336       7.0430878     -2258.2929     -29062.947    
    198400   157.96971      314.08095     -2265.165       6.9016853     -2258.2634     -30417.027    
    198450   154.91225      308.00201     -2265.0112      6.7681054     -2258.2431     -28071.661    
    198500   161.47522      321.05073     -2265.2919      7.0548409     -2258.237      -25998.957    
    198550   164.16356      326.39578     -2265.3867      7.1722942     -2258.2144     -28464.98     
    198600   148.7918       295.83311     -2264.6921      6.5007033     -2258.1914     -28380.609    
    198650   157.06431      312.28081     -2265.033       6.8621288     -2258.1709     -28791.559    
    198700   158.48062      315.09677     -2265.0799      6.9240072     -2258.1559     -28741.302    
    198750   158.49796      315.13124     -2265.0605      6.9247647     -2258.1358     -26655.884    
    198800   165.22507      328.50632     -2265.3466      7.2186716     -2258.128      -27477.892    
    198850   162.63137      323.34942     -2265.2143      7.1053528     -2258.109      -29090.821    
    198900   169.90203      337.80521     -2265.5269      7.4230076     -2258.1039     -24425.035    
    198950   152.64374      303.49168     -2264.7527      6.6689942     -2258.0837     -23597.052    
    199000   154.74709      307.67364     -2264.8284      6.7608896     -2258.0675     -28570.445    
    199050   166.47739      330.99622     -2265.3325      7.2733853     -2258.0591     -30443.657    
    199100   163.20294      324.48585     -2265.1688      7.1303249     -2258.0385     -30740.59     
    199150   167.84671      333.71875     -2265.3593      7.3332109     -2258.0261     -27763.223    
    199200   162.74289      323.57116     -2265.1252      7.1102254     -2258.015      -29191.676    
    199250   154.08164      306.35056     -2264.7384      6.731816      -2258.0066     -28111.124    
    199300   158.51347      315.16207     -2264.9224      6.9254421     -2257.9969     -29467.409    
    199350   158.07831      314.29688     -2264.8897      6.9064303     -2257.9833     -27059.666    
    199400   163.25222      324.58383     -2265.1077      7.132478      -2257.9753     -30717.324    
    199450   151.0085       300.24043     -2264.5566      6.5975507     -2257.959      -31445.404    
    199500   148.00602      294.27079     -2264.424       6.4663724     -2257.9576     -29499.724    
    199550   164.09317      326.25584     -2265.1172      7.1692191     -2257.948      -27511.762    
    199600   151.79581      301.80579     -2264.5717      6.6319482     -2257.9398     -27380.701    
    199650   149.43771      297.11733     -2264.448       6.528923      -2257.9191     -33875.834    
    199700   157.25742      312.66476     -2264.7824      6.8705656     -2257.9118     -28529.447    
    199750   155.19964      308.57341     -2264.6934      6.7806614     -2257.9127     -26885.975    
    199800   159.25373      316.63389     -2264.8555      6.9577841     -2257.8977     -32144.569    
    199850   148.05314      294.36447     -2264.3623      6.468431      -2257.8939     -26902.914    
    199900   165.9067       329.86155     -2265.1322      7.2484518     -2257.8838     -29236.147    
    199950   178.8556       355.60701     -2265.7008      7.8141883     -2257.8866     -26877.777    
    200000   145.62384      289.53446     -2264.2211      6.3622953     -2257.8588     -26861.503    
colvars: Saving collective variables state to "out.colvars.state".
colvars:   Writing TI PMF to file "out.metadynamics1.ti.pmf".
Loop time of 981.116 on 4 procs for 200000 steps with 339 atoms

Performance: 8.806 ns/day, 2.725 hours/ns, 203.849 timesteps/s, 69.105 katom-step/s
138.7% CPU use with 4 MPI tasks x 1 OpenMP threads

MPI task timing breakdown:
Section |  min time  |  avg time  |  max time  |%varavg| %total
---------------------------------------------------------------
Pair    | 727.78     | 837.91     | 932.48     | 327.6 | 85.40
Neigh   | 0.10741    | 1.1394     | 2.0722     |  67.0 |  0.12
Comm    | 26.686     | 103.62     | 182.15     | 747.2 | 10.56
Output  | 4.7032     | 5.5501     | 6.521      |  35.5 |  0.57
Modify  | 11.326     | 30.336     | 68.083     | 420.4 |  3.09
Other   |            | 2.559      |            |       |  0.26

Nlocal:          84.75 ave         141 max           1 min
Histogram: 1 0 0 0 0 0 1 1 0 1
Nghost:           1168 ave        1690 max         580 min
Histogram: 1 0 0 0 0 2 0 0 0 1
Neighs:              0 ave           0 max           0 min
Histogram: 4 0 0 0 0 0 0 0 0 0
FullNghs:      16560.5 ave       32934 max          53 min
Histogram: 1 0 0 0 1 1 0 0 0 1

Total # of neighbors = 66242
Ave neighs/atom = 195.40413
Neighbor list builds = 1959
Dangerous builds = 1
write_data final.data
System init for write_data ...
Generated 0 of 6 mixed pair_coeff terms from geometric mixing rule

CITE-CITE-CITE-CITE-CITE-CITE-CITE-CITE-CITE-CITE-CITE-CITE-CITE

Your simulation uses code contributions which should be cited:

- Colvars module (Fiorin2013, plus other works listed for specific features)


% Colvars module:
% Colvars-LAMMPS interface:
% Metadynamics colvar bias implementation:
% Optimal rotation via flexible fitting:
% distance colvar component:

@article{Fiorin2013,
  author = {Fiorin, Giacomo and Klein, Michael L.{} and H\'enin, J\'er\^ome},
  title = {Using collective variables to drive molecular dynamics simulations},
  journal = {Mol. Phys.},
  year = {2013},
  volume = {111},
  number = {22-23},
  pages = {3345--3362},
  publisher = {Taylor & Francis},
  doi = {10.1080/00268976.2013.813594},
  url = {https://doi.org/10.1080/00268976.2013.813594}
}


% Internal-forces free energy estimator:

@article{Henin2010,
  author = {H\'enin, J\'er\^ome and Fiorin, Giacomo and Chipot, Christophe and Klein, Michael L.},
  title = {Exploring multidimensional free energy landscapes using time-dependent biases on collective variables},
  journal = {J. Chem. Theory Comput.},
  year = {2010},
  volume = {6},
  pages = {35-47},
  number = {1},
  doi = {10.1021/ct9004432},
  pmid = {26614317},
  url = {https://doi.org/10.1021/ct9004432}
}


% LAMMPS engine:

@article{Thompson2022,
  title = {{LAMMPS} - a flexible simulation tool for particle-based materials modeling at the atomic, meso, and continuum scales},
  author = {Thompson, Aidan P. and Aktulga, H. Metin and Berger, Richard and Bolintineanu, Dan S. and Brown, W. Michael and Crozier, Paul S. and {in't Veld}, Pieter J. and Kohlmeyer, Axel and Moore, Stan G. and Nguyen, Trung Dac and Shan, Ray and Stevens, Mark J. and Tranchida, Julien and Trott, Christian and Plimpton, Steven J.},
  journal = {Comp. Phys. Comm.},
  volume = {271},
  pages = {108171},
  year = {2022},
  doi = {10.1016/j.cpc.2021.108171},
  url = {https://doi.org/10.1016/j.cpc.2021.108171}
}

CITE-CITE-CITE-CITE-CITE-CITE-CITE-CITE-CITE-CITE-CITE-CITE-CITE

Total wall time: 0:16:43
