LAMMPS (2 Aug 2023)
OMP_NUM_THREADS environment is not set. Defaulting to 1 thread. (src/comm.cpp:98)
  using 1 OpenMP thread(s) per MPI task
Loaded 1 plugins from /work/home/baoergen22b/apprepo/deepmd/v2.2.9-dtk23.10/app/lib/deepmd_lmp
package gpu 4
# system
units        metal
dimension    3
atom_style   atomic
boundary     p p f

# 设置原子映射
atom_modify map array

# initial stucture
read_data POSCAR.lmp
Reading data file ...
  orthogonal box = (0 0 0) to (11.328 12.015 32)
  1 by 1 by 4 MPI processor grid
  reading atoms ...
  338 atoms
  read_data CPU = 0.026 seconds
mass      1 55.845
mass      2 15.999
mass      3 1.008
mass      4  35.450

# potential
pair_style deepmd graph-compress.pb
Summary of lammps deepmd module ...
  >>> Info of deepmd-kit:
  installed to:       /work/home/wys974137909/shangcheng/deepmd-kit/20240715/deepmd-kit_v2.2.9/install
  source:             v2.2.9
  source branch:      HEAD
  source commit:      be43748
  source commit at:   2024-02-04 13:44:12 +0800
  support model ver.: 1.1 
  build variant:      rocm
  build with tf inc:  /work/home/wys974137909/shangcheng/miniconda3/envs/deepmd-kit-v2.2.9/lib/python3.8/site-packages/tensorflow/include;/work/home/wys974137909/shangcheng/miniconda3/envs/deepmd-kit-v2.2.9/lib/python3.8/site-packages/tensorflow/include
  build with tf lib:  /work/home/wys974137909/shangcheng/miniconda3/envs/deepmd-kit-v2.2.9/lib/python3.8/site-packages/tensorflow/lib/libtensorflow_cc.so
  set tf intra_op_parallelism_threads: 0
  set tf inter_op_parallelism_threads: 0
  >>> Info of lammps module:
  use deepmd-kit at:  /work/home/wys974137909/shangcheng/deepmd-kit/20240715/deepmd-kit_v2.2.9/install
  source:             v2.2.9
  source branch:      HEAD
  source commit:      be43748
  source commit at:   2024-02-04 13:44:12 +0800
  build float prec:   double
  build with tf inc:  /work/home/wys974137909/shangcheng/miniconda3/envs/deepmd-kit-v2.2.9/lib/python3.8/site-packages/tensorflow/include;/work/home/wys974137909/shangcheng/miniconda3/envs/deepmd-kit-v2.2.9/lib/python3.8/site-packages/tensorflow/include
  build with tf lib:  /work/home/wys974137909/shangcheng/miniconda3/envs/deepmd-kit-v2.2.9/lib/python3.8/site-packages/tensorflow/lib/libtensorflow_cc.so
pair_coeff * *

# 固定原子受力、速度为 0
group fixed id 1:168
168 atoms in group fixed
group mobile subtract all fixed
170 atoms in group mobile
fix freeze_fixed fixed setforce 0.0 0.0 0.0
velocity fixed set 0 0 0

# 在z=27处添加硬性反射墙
fix wall1 mobile wall/reflect zhi 27

# 计算mobile组的温度
compute mTemp mobile temp
thermo 50
thermo_style custom step temp c_mTemp pe ke etotal press
velocity mobile  create 298.15 12345 mom yes rot yes

#fix ensemble mobile  nvt temp 298.15 298.15 1
#timestep 0.0005
#run 15000
#unfix ensemble        # 结束预平衡的NVT

fix ensemble mobile  nvt temp 298.15 298.15 0.5
fix meta  all colvars pmf.in tstat ensemble
timestep 0.0005
dump trace all custom 10 md.lammpstrj id type x y z
run 200000

CITE-CITE-CITE-CITE-CITE-CITE-CITE-CITE-CITE-CITE-CITE-CITE-CITE

Your simulation uses code contributions which should be cited:

- GPU package (short-range, long-range and three-body potentials): doi:10.1016/j.cpc.2010.12.021, doi:10.1016/j.cpc.2011.10.012, doi:10.1016/j.cpc.2013.08.002, doi:10.1016/j.commatsci.2014.10.068, doi:10.1016/j.cpc.2016.10.020, doi:10.3233/APC200086

@Article{Brown11,
 author = {W. M. Brown and P. Wang and S. J. Plimpton and A. N. Tharrington},
 title = {Implementing Molecular Dynamics on Hybrid High Performance Computers---Short Range Forces},
 journal = {Comput.\ Phys.\ Commun.},
 year =    2011,
 volume =  182,
 pages =   {898--911},
 doi =     {10.1016/j.cpc.2010.12.021}
}

@Article{Brown12,
 author = {W. M. Brown and A. Kohlmeyer and S. J. Plimpton and A. N. Tharrington},
 title = {Implementing Molecular Dynamics on Hybrid High Performance Computers - Particle-Particle Particle-Mesh},
 journal = {Comput.\ Phys.\ Commun.},
 year =    2012,
 volume =  183,
 doi =     {10.1016/j.cpc.2011.10.012},
 pages =   {449--459}
}

@Article{Brown13,
 author = {W. M. Brown and Y. Masako},
 title = {Implementing Molecular Dynamics on Hybrid High Performance Computers---Three-Body Potentials},
 journal = {Comput.\ Phys.\ Commun.},
 year =    2013,
 volume =  184,
 pages =   {2785--2793},
 doi =     {10.1016/j.cpc.2013.08.002},
}

@Article{Trung15,
 author = {T. D. Nguyen and S. J. Plimpton},
 title = {Accelerating Dissipative Particle Dynamics Simulations for Soft Matter Systems},
 journal = {Comput.\ Mater.\ Sci.},
 year =    2015,
 doi =     {10.1016/j.commatsci.2014.10.068},
 volume =  100,
 pages =   {173--180}
}

@Article{Trung17,
 author = {T. D. Nguyen},
 title = {{GPU}-Accelerated {T}ersoff Potentials for Massively Parallel
    Molecular Dynamics Simulations},
 journal = {Comput.\ Phys.\ Commun.},
 year =    2017,
 doi =     {10.1016/j.cpc.2016.10.020},
 volume =  212,
 pages =   {113--122}
}

@inproceedings{Nikolskiy19,
 author = {V. Nikolskiy and V. Stegailov},
 title = {{GPU} Acceleration of Four-Site Water Models in {LAMMPS}},
 booktitle = {Proceedings of the International Conference on Parallel
    Computing (ParCo 2019), Prague, Czech Republic},
 doi =     {10.3233/APC200086},
 year =    2019
}

- USER-DEEPMD package:

@article{Wang_ComputPhysCommun_2018_v228_p178,
  author = {Wang, Han and Zhang, Linfeng and Han, Jiequn and E, Weinan},
  doi = {10.1016/j.cpc.2018.03.016},
  url = {https://doi.org/10.1016/j.cpc.2018.03.016},
  year = 2018,
  month = {jul},
  publisher = {Elsevier {BV}},
  volume = 228,
  journal = {Comput. Phys. Commun.},
  title = {{DeePMD-kit: A deep learning package for many-body potential energy representation and molecular dynamics}},
  pages = {178--184}
}
@misc{Zeng_JChemPhys_2023_v159_p054801,
  title  = {{DeePMD-kit v2: A software package for deep potential models}},
  author =   {Jinzhe Zeng and Duo Zhang and Denghui Lu and Pinghui Mo and Zeyu Li
         and Yixiao Chen and Mari{\'a}n Rynik and Li'ang Huang and Ziyao Li and 
         Shaochen Shi and Yingze Wang and Haotian Ye and Ping Tuo and Jiabin
         Yang and Ye Ding and Yifan Li and Davide Tisi and Qiyu Zeng and Han 
         Bao and Yu Xia and Jiameng Huang and Koki Muraoka and Yibo Wang and 
         Junhan Chang and Fengbo Yuan and Sigbj{\o}rn L{\o}land Bore and Chun
         Cai and Yinnian Lin and Bo Wang and Jiayan Xu and Jia-Xin Zhu and 
         Chenxing Luo and Yuzhi Zhang and Rhys E A Goodall and Wenshuo Liang
         and Anurag Kumar Singh and Sikai Yao and Jingchao Zhang and Renata
         Wentzcovitch and Jiequn Han and Jie Liu and Weile Jia and Darrin M
         York and Weinan E and Roberto Car and Linfeng Zhang and Han Wang},
  journal =  {J. Chem. Phys.},
  volume =   159,
  issue =    5,  
  year =    2023,
  pages  =   054801,
  doi =      {10.1063/5.0155600},
}

CITE-CITE-CITE-CITE-CITE-CITE-CITE-CITE-CITE-CITE-CITE-CITE-CITE

Generated 0 of 6 mixed pair_coeff terms from geometric mixing rule
Neighbor list info ...
  update: every = 1 steps, delay = 0 steps, check = yes
  max neighbors/atom: 2000, page size: 100000
  master list distance cutoff = 8
  ghost atom cutoff = 8
  binsize = 4, bins = 3 4 8
  1 neighbor lists, perpetual/occasional/extra = 1 0 0
  (1) pair deepmd, perpetual
      attributes: full, newton on
      pair build: full/bin/atomonly
      stencil: full/bin/3d
      bin: standard
colvars: Creating proxy instance
colvars: ----------------------------------------------------------------------
colvars: Initializing the collective variables module, version 2023-05-01.
colvars: Please cite Fiorin et al, Mol Phys 2013:
colvars:   https://doi.org/10.1080/00268976.2013.813594
colvars: as well as all other papers listed below for individual features used.
colvars: This version was built with the C++11 standard or higher.
colvars: Using LAMMPS interface, version "2023-04-12".
colvars: ----------------------------------------------------------------------
colvars: Reading new configuration from file "pmf.in":
colvars: # units = "" [default]
colvars: # smp = on [default]
colvars: # colvarsTrajFrequency = 100 [default]
colvars: # colvarsRestartFrequency = 0 [default]
colvars: # scriptedColvarForces = off [default]
colvars: # scriptingAfterBiases = off [default]
colvars: ----------------------------------------------------------------------
colvars:   Initializing a new collective variable.
colvars:   # name = "cn_H_Fe"
colvars:   Initializing a new "coordNum" component.
colvars:     # name = "" [default]
colvars:     # componentCoeff = 1 [default]
colvars:     # componentExp = 1 [default]
colvars:     # period = 0 [default]
colvars:     # wrapAround = 0 [default]
colvars:     # forceNoPBC = off [default]
colvars:     # scalable = on [default]
colvars:       Initializing atom group "group1".
colvars:       # name = "" [default]
colvars:       # centerToOrigin = off [default]
colvars:       # centerToReference = off [default]
colvars:       # rotateToReference = off [default]
colvars:       # atomsOfGroup = "" [default]
colvars:       # indexGroup = "" [default]
colvars:       # psfSegID =  [default]
colvars:       # atomsFile = "" [default]
colvars:       # dummyAtom = ( 0 , 0 , 0 ) [default]
colvars:       # enableFitGradients = on [default]
colvars:       # printAtomIDs = off [default]
colvars:       Atom group "group1" defined with 1 atoms requested.
colvars:       Initializing atom group "group2".
colvars:       # name = "" [default]
colvars:       # centerToOrigin = off [default]
colvars:       # centerToReference = off [default]
colvars:       # rotateToReference = off [default]
colvars:       # atomsOfGroup = "" [default]
colvars:       # indexGroup = "" [default]
colvars:       # psfSegID =  [default]
colvars:       # atomsFile = "" [default]
colvars:       # dummyAtom = ( 0 , 0 , 0 ) [default]
colvars:       # enableFitGradients = on [default]
colvars:       # printAtomIDs = off [default]
colvars:       Atom group "group2" defined with 168 atoms requested.
colvars:     # cutoff = 2.5
colvars:     # cutoff3 = ( 4 , 4 , 4 ) [default]
colvars:     # expNumer = 6 [default]
colvars:     # expDenom = 12 [default]
colvars:     # group2CenterOnly = off [default]
colvars:     # tolerance = 0 [default]
colvars:   All components initialized.
colvars:   # timeStepFactor = 1 [default]
colvars:   # width = 0.1
colvars:   # lowerBoundary = 0
colvars:   # upperBoundary = 6
colvars:   # hardLowerBoundary = on
colvars:   # hardUpperBoundary = off [default]
colvars:   # expandBoundaries = off [default]
colvars:   # extendedLagrangian = off [default]
colvars:   # outputValue = on [default]
colvars:   # outputVelocity = off [default]
colvars:   # outputTotalForce = off [default]
colvars:   # outputAppliedForce = off [default]
colvars:   # subtractAppliedForce = off [default]
colvars:   # runAve = off [default]
colvars:   # corrFunc = off [default]
colvars: ----------------------------------------------------------------------
colvars:   Initializing a new collective variable.
colvars:   # name = "cn_H_O"
colvars:   Initializing a new "coordNum" component.
colvars:     # name = "" [default]
colvars:     # componentCoeff = 1 [default]
colvars:     # componentExp = 1 [default]
colvars:     # period = 0 [default]
colvars:     # wrapAround = 0 [default]
colvars:     # forceNoPBC = off [default]
colvars:     # scalable = on [default]
colvars:       Initializing atom group "group1".
colvars:       # name = "" [default]
colvars:       # centerToOrigin = off [default]
colvars:       # centerToReference = off [default]
colvars:       # rotateToReference = off [default]
colvars:       # atomsOfGroup = "" [default]
colvars:       # indexGroup = "" [default]
colvars:       # psfSegID =  [default]
colvars:       # atomsFile = "" [default]
colvars:       # dummyAtom = ( 0 , 0 , 0 ) [default]
colvars:       # enableFitGradients = on [default]
colvars:       # printAtomIDs = off [default]
colvars:       Atom group "group1" defined with 1 atoms requested.
colvars:       Initializing atom group "group2".
colvars:       # name = "" [default]
colvars:       # centerToOrigin = off [default]
colvars:       # centerToReference = off [default]
colvars:       # rotateToReference = off [default]
colvars:       # atomsOfGroup = "" [default]
colvars:       # indexGroup = "" [default]
colvars:       # psfSegID =  [default]
colvars:       # atomsFile = "" [default]
colvars:       # dummyAtom = ( 0 , 0 , 0 ) [default]
colvars:       # enableFitGradients = on [default]
colvars:       # printAtomIDs = off [default]
colvars:       Atom group "group2" defined with 56 atoms requested.
colvars:     # cutoff = 2.5
colvars:     # cutoff3 = ( 4 , 4 , 4 ) [default]
colvars:     # expNumer = 6 [default]
colvars:     # expDenom = 12 [default]
colvars:     # group2CenterOnly = off [default]
colvars:     # tolerance = 0 [default]
colvars:   All components initialized.
colvars:   # timeStepFactor = 1 [default]
colvars:   # width = 0.1
colvars:   # lowerBoundary = 0
colvars:   # upperBoundary = 7
colvars:   # hardLowerBoundary = off [default]
colvars:   # hardUpperBoundary = off [default]
colvars:   # expandBoundaries = off [default]
colvars:   # extendedLagrangian = off [default]
colvars:   # outputValue = on [default]
colvars:   # outputVelocity = off [default]
colvars:   # outputTotalForce = off [default]
colvars:   # outputAppliedForce = off [default]
colvars:   # subtractAppliedForce = off [default]
colvars:   # runAve = off [default]
colvars:   # corrFunc = off [default]
colvars: ----------------------------------------------------------------------
colvars: Collective variables initialized, 2 in total.
colvars: ----------------------------------------------------------------------
colvars:   Initializing a new "metadynamics" instance.
colvars:   # name = "meta2d"
colvars:   # colvars = { cn_H_Fe, cn_H_O }
colvars:   # stepZeroData = off [default]
colvars:   # outputEnergy = off [default]
colvars:   # outputFreq = 0 [default]
colvars:   # timeStepFactor = 1 [default]
colvars:   # writeTISamples = off [default]
colvars:   # writeTIPMF = off [default]
colvars:   # hillWeight = 0.08
colvars:   # newHillFrequency = 500
colvars:   # gaussianSigmas =  [default]
colvars:   # hillWidth = 1
colvars:   Half-widths of the Gaussian hills (sigma's):
colvars:   cn_H_Fe: 0.05
colvars:   cn_H_O: 0.05
colvars:   # multipleReplicas = off [default]
colvars:   # useGrids = on [default]
colvars:   # gridsUpdateFrequency = 500 [default]
colvars:   # rebinGrids = off [default]
colvars:   # writeFreeEnergyFile = on [default]
colvars:   # keepHills = off [default]
colvars:   # keepFreeEnergyFiles = off [default]
colvars:   # writeHillsTrajectory = off [default]
colvars:   # wellTempered = off [default]
colvars:   # biasTemperature = 400
colvars:   # ebMeta = off [default]
colvars: ----------------------------------------------------------------------
colvars: Collective variables biases initialized, 1 in total.
colvars: ----------------------------------------------------------------------
colvars: Collective variables module (re)initialized.
colvars: ----------------------------------------------------------------------
colvars: Re-initialized atom group for variable "cn_H_Fe":0/0. 1 atoms: total mass = 1.008, total charge = 2.26134e-320.
colvars: Re-initialized atom group for variable "cn_H_Fe":0/1. 168 atoms: total mass = 9381.96, total charge = 1.86525e-308.
colvars: Re-initialized atom group for variable "cn_H_O":0/0. 1 atoms: total mass = 1.008, total charge = 2.26134e-320.
colvars: Re-initialized atom group for variable "cn_H_O":0/1. 56 atoms: total mass = 895.944, total charge = 2.11743e-308.
colvars: The restart output state file will be "rest.colvars.state".
colvars: The final output state file will be "out.colvars.state".
Per MPI rank memory allocation (min/avg/max) = 3.135 | 3.162 | 3.178 Mbytes
   Step          Temp         c_mTemp         PotEng         KinEng         TotEng         Press     
         0   149.51736      298.15        -2331.7924      6.5130762     -2325.2793     -15708.466    
        50   144.93761      289.0176      -2331.5886      6.3135792     -2325.275      -12540.075    
       100   138.42512      276.03115     -2331.2992      6.0298907     -2325.2693     -16555.603    
       150   141.66033      282.48243     -2331.4387      6.1708187     -2325.2679     -15068.362    
       200   135.03753      269.27602     -2331.1432      5.882325      -2325.2609     -17518.912    
       250   147.64049      294.40737     -2331.6903      6.4313186     -2325.259      -13225.352    
       300   146.70378      292.53949     -2331.6402      6.3905147     -2325.2497     -14711.885    
       350   142.41928      283.99585     -2331.4434      6.2038792     -2325.2395     -14283.754    
       400   140.88191      280.9302      -2331.3661      6.1369102     -2325.2292     -15840.074    
       450   141.99867      283.15711     -2331.4042      6.185557      -2325.2187     -14656.15     
       500   148.28732      295.6972      -2331.6532      6.4594949     -2325.1938     -14439.706    
       550   141.54823      282.25889     -2331.2538      6.1659354     -2325.0879     -15376.207    
       600   149.83167      298.77676     -2331.6199      6.5267677     -2325.0931     -14915.521    
       650   139.54373      278.26176     -2331.1485      6.0786183     -2325.0699     -14502.55     
       700   141.25365      281.67147     -2331.2046      6.1531034     -2325.0515     -13541.186    
       750   152.20207      303.50354     -2331.6586      6.6300241     -2325.0286     -14470.411    
       800   144.81489      288.77289     -2331.2929      6.3082336     -2324.9847     -17567.524    
       850   145.92286      290.98227     -2331.2834      6.3564973     -2324.927      -13826.157    
       900   150.87508      300.85741     -2331.48        6.5722194     -2324.9078     -13464.593    
       950   135.71635      270.62965     -2330.7843      5.9118951     -2324.8724     -16609.138    
      1000   158.19671      315.45735     -2331.7466      6.8911546     -2324.8555     -13867.314    
      1050   144.43986      288.02504     -2331.1143      6.2918968     -2324.8224     -13884.609    
      1100   159.89871      318.85127     -2331.7389      6.9652948     -2324.7736     -14124.338    
      1150   171.5999       342.18441     -2332.2578      7.4750063     -2324.7828     -15510.872    
      1200   168.03264      335.071       -2332.0617      7.319614      -2324.7421     -14320.952    
      1250   158.04968      315.16416     -2331.5642      6.8847498     -2324.6795     -14941.575    
      1300   162.77621      324.58925     -2331.7356      7.0906406     -2324.645      -13758.719    
      1350   177.60092      354.15094     -2332.3639      7.7364148     -2324.6275     -15283.877    
      1400   163.71215      326.45558     -2331.725       7.1314106     -2324.5936     -13185.832    
      1450   167.01821      333.04815     -2331.8495      7.275425      -2324.5741     -15053.591    
      1500   171.1938       341.37462     -2332.0089      7.4573165     -2324.5516     -13898.648    
      1550   158.73818      316.53708     -2331.4035      6.9147413     -2324.4887     -17223.428    
      1600   161.48469      322.01386     -2331.4834      7.0343813     -2324.449      -14895.219    
      1650   164.59586      328.21778     -2331.6043      7.1699058     -2324.4344     -14740.929    
      1700   161.53927      322.12269     -2331.4572      7.0367588     -2324.4204     -15233.232    
      1750   160.79376      320.63607     -2331.4389      7.0042836     -2324.4346     -15301.015    
      1800   161.2797       321.60509     -2331.3984      7.0254517     -2324.373      -16216.072    
      1850   157.37775      313.82426     -2331.2429      6.8554799     -2324.3874     -13349.627    
      1900   149.66363      298.44168     -2330.8684      6.5194479     -2324.3489     -12151.956    
      1950   171.40915      341.80404     -2331.7796      7.4666972     -2324.3129     -11775.162    
      2000   150.62645      300.36162     -2330.7997      6.561389      -2324.2383     -16225.417    
      2050   153.52555      306.14266     -2330.8883      6.6876756     -2324.2006     -13905.231    
      2100   180.69452      360.31985     -2331.963       7.8711743     -2324.0919     -12906.927    
      2150   162.84172      324.71988     -2331.1959      7.0934943     -2324.1024     -11806.46     
      2200   155.19086      309.46344     -2330.842       6.7602178     -2324.0818     -13298.357    
      2250   154.31465      307.7162      -2330.8836      6.7220495     -2324.1615     -13982.286    
      2300   159.19665      317.45131     -2331.0514      6.9347127     -2324.1167     -15868.134    
      2350   156.43537      311.94509     -2330.9204      6.8144295     -2324.106      -13390.165    
      2400   160.32093      319.69321     -2331.1034      6.9836869     -2324.1197     -12167.421    
      2450   144.62066      288.38557     -2330.4376      6.2997725     -2324.1378     -13882.241    
      2500   151.28503      301.67489     -2330.7511      6.5900773     -2324.161      -11646.789    
      2550   150.97811      301.06286     -2330.6589      6.5767074     -2324.0821     -11927.849    
      2600   154.04449      307.17748     -2330.7817      6.7102812     -2324.0714     -14779.797    
      2650   166.79318      332.59941     -2331.3596      7.2656223     -2324.0939     -11669.476    
      2700   160.70285      320.4548      -2331.1199      7.0003237     -2324.1196     -12895.112    
      2750   161.29288      321.63136     -2331.2031      7.0260257     -2324.1771     -11816.452    
      2800   169.23623      337.47107     -2331.5812      7.3720436     -2324.2091     -15849.849    
      2850   159.86821      318.79046     -2331.2214      6.9639662     -2324.2574     -10868.266    
      2900   158.2776       315.61864     -2331.2051      6.8946781     -2324.3104     -13636.154    
      2950   146.0573       291.25035     -2330.7076      6.3623536     -2324.3452     -11652.279    
      3000   159.85459      318.7633      -2331.3762      6.9633729     -2324.4128     -12459.577    
      3050   173.62069      346.21404     -2332.0166      7.5630335     -2324.4536     -16131.822    
      3100   170.63686      340.26404     -2331.9516      7.4330559     -2324.5185     -16136.165    
      3150   159.80181      318.65804     -2331.5592      6.9610735     -2324.5981     -13463.772    
      3200   167.40922      333.82785     -2331.9543      7.2924576     -2324.6619     -13950.05     
      3250   165.99688      331.01154     -2331.9262      7.2309353     -2324.6952     -15029.505    
      3300   171.94168      342.86596     -2332.2698      7.4898948     -2324.7799     -13267.803    
      3350   150.57835      300.2657      -2331.3824      6.5592936     -2324.8231     -15437.219    
      3400   148.25536      295.63346     -2331.3452      6.4581024     -2324.8871     -13961.805    
      3450   154.23839      307.56412     -2331.6392      6.7187274     -2324.9205     -12765.142    
      3500   159.29212      317.64168     -2331.8528      6.9388713     -2324.914      -13524.889    
      3550   164.81899      328.66273     -2332.0685      7.1796256     -2324.8889     -15069.059    
      3600   156.72261      312.51787     -2331.7707      6.8269417     -2324.9437     -13548.874    
      3650   158.31482      315.69286     -2331.9068      6.8962994     -2325.0105     -13175.399    
      3700   156.61937      312.312       -2331.8802      6.8224446     -2325.0578     -13227.089    
      3750   153.35441      305.80139     -2331.8066      6.6802206     -2325.1263     -14299.247    
      3800   161.56367      322.17135     -2332.2179      7.0378216     -2325.18       -12919.741    
      3850   175.59582      350.15262     -2332.8367      7.6490715     -2325.1877     -10603.611    
      3900   169.53024      338.05734     -2332.6521      7.3848506     -2325.2673     -14758.003    
      3950   164.81982      328.66437     -2332.652       7.1796615     -2325.4724     -13760.447    
      4000   157.0158       313.10252     -2332.2803      6.8397135     -2325.4406     -13893.354    
      4050   158.58443      316.23049     -2332.347       6.9080438     -2325.439      -12640.62     
      4100   162.62661      324.29094     -2332.5669      7.084124      -2325.4828     -13210.932    
      4150   162.85147      324.73932     -2332.6236      7.093919      -2325.5297     -14405.455    
      4200   149.54469      298.20451     -2332.0817      6.5142669     -2325.5674     -16652.556    
      4250   160.68079      320.4108      -2332.6303      6.9993626     -2325.6309     -11388.413    
      4300   152.23113      303.56148     -2332.2698      6.6312897     -2325.6385     -14199.538    
      4350   170.76257      340.51471     -2333.0731      7.4385317     -2325.6346     -16681.02     
      4400   154.27841      307.64392     -2332.3664      6.7204706     -2325.6459     -14325.107    
      4450   159.46082      317.97809     -2332.6105      6.9462201     -2325.6643     -15253.506    
      4500   159.83191      318.71807     -2332.6919      6.962385      -2325.7296     -14349.118    
      4550   148.69256      296.50528     -2332.174       6.4771473     -2325.6968     -14352.618    
      4600   152.43745      303.9729      -2332.3114      6.6402771     -2325.6711     -9633.5113    
      4650   142.67843      284.5126      -2332.025       6.2151677     -2325.8098     -14845.73     
      4700   150.76326      300.63444     -2332.3883      6.5673486     -2325.8209     -16090.217    
      4750   145.06037      289.26239     -2332.3695      6.3189267     -2326.0506     -13059.772    
      4800   149.71596      298.54602     -2332.592       6.5217273     -2326.0703     -13241.959    
      4850   158.97896      317.01722     -2333.0338      6.92523       -2326.1085     -17487.805    
      4900   145.66751      290.47308     -2332.4793      6.3453741     -2326.1339     -13786.087    
      4950   163.86205      326.7545      -2333.1613      7.1379405     -2326.0234     -16674.079    
      5000   154.03742      307.16337     -2332.7734      6.7099729     -2326.0634     -14255.215    
      5050   151.83325      302.76808     -2332.6283      6.613958      -2326.0143     -12876.109    
      5100   139.50015      278.17486     -2332.1578      6.07672       -2326.0811     -13554.864    
      5150   143.70411      286.5579      -2332.3973      6.2598473     -2326.1375     -15220.037    
      5200   137.81709      274.81869     -2332.2078      6.0034045     -2326.2044     -18094.251    
      5250   146.1281       291.39154     -2332.4985      6.3654378     -2326.1331     -13950.358    
      5300   140.34288      279.85533     -2331.9249      6.1134297     -2325.8115     -14799.636    
      5350   150.60159      300.31204     -2332.2635      6.5603058     -2325.7032     -13302.844    
      5400   161.46569      321.97595     -2332.7706      7.0335533     -2325.7371     -15036.178    
      5450   141.09228      281.3497      -2331.9017      6.1460741     -2325.7557     -15496.874    
      5500   145.49957      290.1382      -2332.1144      6.3380588     -2325.7763     -15928.618    
      5550   141.55185      282.26612     -2331.8742      6.1660935     -2325.7081     -14247.448    
      5600   147.97834      295.08107     -2332.1956      6.4460356     -2325.7496     -15377.634    
      5650   150.69704      300.50238     -2332.2262      6.5644638     -2325.6617     -12383.212    
      5700   160.64414      320.33773     -2332.6791      6.9977663     -2325.6813     -14397.987    
      5750   160.72473      320.49842     -2332.7015      7.0012767     -2325.7002     -16569.556    
      5800   153.65594      306.40268     -2332.4517      6.6933556     -2325.7583     -12597.057    
      5850   158.48239      316.02702     -2332.6768      6.903599      -2325.7732     -15792.028    
      5900   167.79985      334.60679     -2333.1322      7.3094735     -2325.8227     -15568.328    
      5950   164.74554      328.51626     -2332.8421      7.1764261     -2325.6657     -13986.979    
      6000   166.36573      331.74704     -2332.8699      7.2470024     -2325.6229     -14253.775    
      6050   153.79801      306.68598     -2332.3094      6.6995443     -2325.6099     -14265.016    
      6100   156.37447      311.82365     -2332.5862      6.8117765     -2325.7744     -13127.069    
      6150   150.70469      300.51764     -2332.3109      6.5647973     -2325.7461     -15568.797    
      6200   142.15067      283.46022     -2332.0384      6.1921784     -2325.8462     -15925.151    
      6250   146.44032      292.01413     -2332.2013      6.3790382     -2325.8222     -13685.412    
      6300   149.31537      297.74722     -2332.392       6.5042774     -2325.8877     -12874.634    
      6350   171.82259      342.62848     -2333.2721      7.484707      -2325.7874     -14603.838    
      6400   156.46965      312.01345     -2332.6149      6.8159227     -2325.799      -13200.988    
      6450   150.5629       300.2349      -2332.308       6.5586207     -2325.7494     -14997.627    
      6500   163.37007      325.77346     -2332.7469      7.1165096     -2325.6303     -15405.417    
      6550   142.07577      283.31086     -2331.7796      6.1889156     -2325.5907     -12009.36     
      6600   150.58222      300.27342     -2332.2595      6.5594622     -2325.7        -18142.144    
      6650   160.03421      319.12148     -2332.5063      6.9711973     -2325.5351     -16510.324    
      6700   157.76192      314.59034     -2332.4884      6.8722148     -2325.6162     -13238.809    
      6750   156.80307      312.67832     -2332.4914      6.8304467     -2325.6609     -15117.94     
      6800   146.86377      292.85853     -2332.0914      6.3974842     -2325.6939     -15749.681    
      6850   153.96482      307.01861     -2332.4353      6.7068106     -2325.7285     -13785.257    
      6900   162.56252      324.16313     -2332.8267      7.0813321     -2325.7453     -13110.157    
      6950   154.93748      308.95816     -2332.5414      6.7491801     -2325.7922     -15625.041    
      7000   150.69053      300.48939     -2332.5856      6.5641802     -2326.0214     -12419.031    
      7050   149.39523      297.90647     -2332.5455      6.5077562     -2326.0377     -16008.827    
      7100   151.16927      301.44405     -2332.6479      6.5850346     -2326.0629     -14888.614    
      7150   152.91381      304.92281     -2332.6304      6.661028      -2325.9694     -14737.365    
      7200   158.09383      315.25219     -2332.8958      6.8866729     -2326.0091     -14351.841    
      7250   161.49171      322.02785     -2333.1176      7.034687      -2326.0829     -16679.616    
      7300   145.49576      290.1306      -2332.4659      6.3378927     -2326.128      -16204.496    
      7350   155.45328      309.98672     -2332.8892      6.771649      -2326.1175     -13771.502    
      7400   145.53675      290.21233     -2332.423       6.339678      -2326.0834     -15933.009    
      7450   143.32965      285.8112      -2332.3894      6.2435355     -2326.1459     -15704.161    
      7500   151.7448       302.5917      -2332.7244      6.6101048     -2326.1143     -15007.954    
      7550   154.54158      308.16871     -2332.9267      6.7319344     -2326.1948     -15157.684    
      7600   151.75437      302.61079     -2332.8734      6.6105219     -2326.2628     -13591.729    
      7650   143.12274      285.3986      -2332.424       6.2345222     -2326.1894     -13704.321    
      7700   137.01812      273.22549     -2332.1213      5.9686012     -2326.1527     -13433.044    
      7750   149.69446      298.50315     -2332.6717      6.5207907     -2326.1509     -13470.375    
      7800   143.50442      286.15971     -2332.3687      6.2511487     -2326.1175     -15076.203    
      7850   151.91048      302.92208     -2332.6187      6.6173221     -2326.0014     -14637.48     
      7900   151.61006      302.32302     -2332.555       6.6042357     -2325.9508     -13512.526    
      7950   152.22911      303.55746     -2332.6031      6.631202      -2325.9719     -15535.071    
      8000   155.40481      309.89006     -2332.7747      6.7695373     -2326.0051     -15905.7      
      8050   143.7567       286.66277     -2332.4307      6.2621379     -2326.1686     -14105.007    
      8100   138.23479      275.65163     -2332.1271      6.0216001     -2326.1055     -12134.542    
      8150   151.95176      303.0044      -2332.6094      6.6191204     -2325.9902     -14545.984    
      8200   161.59175      322.22734     -2332.7912      7.0390447     -2325.7522     -12412.152    
      8250   165.47468      329.97022     -2333.0067      7.2081877     -2325.7985     -15354.647    
      8300   170.0193       339.03257     -2333.2166      7.4061544     -2325.8104     -15215.044    
      8350   150.82499      300.75753     -2332.4953      6.5700376     -2325.9253     -11865.647    
      8400   172.07422      343.13024     -2333.3899      7.4956679     -2325.8942     -15241.344    
      8450   163.19751      325.42936     -2333.0086      7.1089928     -2325.8996     -16358.218    
      8500   134.58314      268.36993     -2331.8818      5.8625317     -2326.0192     -14213.5      
      8550   146.44564      292.02474     -2332.3404      6.3792702     -2325.9611     -15250.391    
      8600   141.35576      281.87509     -2332.0492      6.1575514     -2325.8916     -18938.484    
      8650   163.03986      325.11499     -2332.9735      7.1021255     -2325.8713     -13348.26     
      8700   161.9263       322.89445     -2332.9827      7.0536178     -2325.929      -15041.461    
      8750   155.808        310.69406     -2332.5843      6.7871006     -2325.7972     -12392.703    
      8800   155.85345      310.78469     -2332.5906      6.7890805     -2325.8015     -15066.888    
      8850   159.48026      318.01684     -2332.8357      6.9470666     -2325.8887     -13522.228    
      8900   146.15667      291.4485      -2332.2683      6.3666821     -2325.9016     -15575.67     
      8950   150.16874      299.4489      -2332.5009      6.5414507     -2325.9594     -12789.811    
      9000   148.19437      295.51185     -2332.4756      6.4554458     -2326.0202     -13194.738    
      9050   144.32286      287.79175     -2332.1623      6.2868005     -2325.8755     -13729.287    
      9100   163.68877      326.40898     -2332.9507      7.1303925     -2325.8203     -12750.934    
      9150   146.00941      291.15486     -2332.0893      6.3602675     -2325.729      -18052.981    
      9200   159.81149      318.67734     -2332.6625      6.9614952     -2325.701      -14182.259    
      9250   151.27217      301.64924     -2332.3417      6.5895168     -2325.7522     -15051.254    
      9300   156.41354      311.90156     -2332.5779      6.8134785     -2325.7644     -12186.103    
      9350   160.55447      320.15892     -2332.7816      6.9938603     -2325.7877     -17821.007    
      9400   161.40883      321.86258     -2332.8322      7.0310767     -2325.8011     -13847.776    
      9450   147.2033       293.53557     -2332.2368      6.4122741     -2325.8245     -14971.54     
      9500   150.36332      299.83691     -2332.3922      6.5499266     -2325.8423     -15637.896    
      9550   162.40459      323.8482      -2332.9171      7.0744525     -2325.8427     -12494.217    
      9600   159.23486      317.5275      -2332.7938      6.936377      -2325.8575     -14119.589    
      9650   158.13292      315.33015     -2332.78        6.8883759     -2325.8916     -15039.987    
      9700   166.5069       332.02855     -2333.1742      7.2531519     -2325.9211     -14806.971    
      9750   161.2375       321.52094     -2332.9223      7.0236135     -2325.8986     -14729.174    
      9800   164.60924      328.24445     -2333.0421      7.1704885     -2325.8716     -16253.824    
      9850   145.74828      290.63415     -2332.0993      6.3488927     -2325.7504     -15673.673    
      9900   158.91476      316.88919     -2332.7158      6.9224332     -2325.7934     -16434.195    
      9950   157.91665      314.89889     -2332.6664      6.878955      -2325.7875     -13585.56     
     10000   168.68032      336.36254     -2333.2632      7.3478277     -2325.9154     -12001.54     
     10050   161.29437      321.63433     -2332.9412      7.0260905     -2325.9151     -15781.403    
     10100   162.53681      324.11187     -2333.104       7.0802123     -2326.0238     -14392.572    
     10150   156.55706      312.18775     -2333.0408      6.8197304     -2326.2211     -13499.655    
     10200   159.78042      318.6154      -2332.8682      6.9601421     -2325.908      -13510.724    
     10250   168.37142      335.74656     -2333.2461      7.3343717     -2325.9117     -12493.745    
     10300   155.56826      310.216       -2332.8271      6.7766575     -2326.0505     -11624.696    
     10350   148.84697      296.81319     -2332.5084      6.4838736     -2326.0245     -13446.155    
     10400   148.51465      296.15052     -2332.5151      6.4693976     -2326.0457     -14754.044    
     10450   157.11546      313.30125     -2332.9111      6.8440547     -2326.067      -14020.532    
     10500   155.57312      310.22569     -2333.0804      6.7768692     -2326.3035     -17922.091    
     10550   156.65559      312.38422     -2332.9842      6.8240221     -2326.1601     -12511.143    
     10600   146.91038      292.95146     -2332.3656      6.3995143     -2325.9661     -14066.203    
     10650   167.17698      333.36475     -2333.2705      7.282341      -2325.9882     -13893.836    
     10700   158.57203      316.20576     -2332.7726      6.9075035     -2325.8651     -13876.949    
     10750   159.3977       317.85223     -2332.7992      6.9434706     -2325.8557     -14930.928    
     10800   173.75279      346.47745     -2333.466       7.5687876     -2325.8973     -13066.42     
     10850   171.20004      341.38706     -2333.366       7.4575882     -2325.9084     -12348.805    
     10900   163.75747      326.54597     -2333.0241      7.1333851     -2325.8907     -15116.908    
     10950   154.58561      308.25651     -2332.6555      6.7338526     -2325.9217     -14123.291    
     11000   167.62571      334.25955     -2333.2266      7.3018879     -2325.9247     -16821.92     
     11050   153.92988      306.94894     -2332.6025      6.7052886     -2325.8972     -14104.901    
     11100   164.64667      328.3191      -2333.1059      7.172119      -2325.9338     -14217.251    
     11150   167.20545      333.42151     -2333.248       7.2835811     -2325.9644     -14544.68     
     11200   160.70415      320.45738     -2333.0201      7.0003801     -2326.0197     -13625.339    
     11250   155.71311      310.50484     -2332.8918      6.7829671     -2326.1089     -16862.872    
     11300   158.84322      316.74653     -2333.0492      6.9193167     -2326.1299     -13419.94     
     11350   149.56509      298.24518     -2332.672       6.5151553     -2326.1568     -14493.394    
     11400   148.10757      295.33877     -2332.6472      6.4516649     -2326.1956     -14265.858    
     11450   152.0683       303.23678     -2332.5942      6.6241967     -2325.97       -17580.403    
     11500   146.50109      292.13531     -2332.3835      6.3816855     -2326.0018     -15487.705    
     11550   147.69257      294.51122     -2332.2888      6.4335871     -2325.8552     -15538.445    
     11600   157.95577      314.97689     -2332.7555      6.8806589     -2325.8749     -16835.883    
     11650   153.66314      306.41703     -2332.7225      6.6936691     -2326.0288     -16914.074    
     11700   152.977        305.04881     -2332.6995      6.6637804     -2326.0357     -15647.794    
     11750   157.66537      314.39781     -2333.0617      6.868009      -2326.1937     -14851.107    
     11800   156.56438      312.20235     -2332.9314      6.8200492     -2326.1114     -17469.008    
     11850   157.30143      313.67209     -2332.9325      6.8521556     -2326.0804     -15396.439    
     11900   144.03316      287.21405     -2332.3938      6.2741808     -2326.1196     -16000.702    
     11950   142.17498      283.50869     -2332.2612      6.1932372     -2326.068      -16309.66     
     12000   139.37841      277.9321      -2332.1536      6.071417      -2326.0822     -14329.811    
     12050   149.98798      299.08846     -2332.6078      6.5335767     -2326.0742     -15819.489    
     12100   156.54824      312.17015     -2332.9086      6.8193459     -2326.0892     -15120.796    
     12150   156.39405      311.8627      -2332.9039      6.8126296     -2326.0913     -16163.043    
     12200   147.70906      294.5441      -2332.5264      6.4343055     -2326.0921     -14283.472    
     12250   161.9939       323.02926     -2333.202       7.0565628     -2326.1454     -15538.178    
     12300   171.49936      341.98393     -2333.5176      7.4706269     -2326.0469     -13912.131    
     12350   159.90284      318.8595      -2332.9636      6.9654745     -2325.9982     -16862.059    
     12400   152.32373      303.74613     -2332.6486      6.6353235     -2326.0133     -15573.783    
     12450   152.21559      303.5305      -2332.6629      6.6306131     -2326.0323     -13857.006    
     12500   169.9925       338.97913     -2333.4532      7.4049872     -2326.0483     -15425.655    
     12550   161.71883      322.48074     -2333.1053      7.0445804     -2326.0607     -16744.925    
     12600   158.24926      315.56214     -2332.9713      6.8934437     -2326.0779     -15323.538    
     12650   142.44985      284.05679     -2332.3135      6.2052106     -2326.1083     -17070.338    
     12700   153.92816      306.9455      -2332.8699      6.7052135     -2326.1647     -13887.892    
     12750   156.69179      312.45642     -2333.0149      6.8255994     -2326.1893     -13738.821    
     12800   157.50072      314.06949     -2333.106       6.8608368     -2326.2451     -16438.984    
     12850   157.91424      314.89408     -2333.1895      6.87885       -2326.3107     -14782.091    
     12900   176.25184      351.46077     -2334.0773      7.6776481     -2326.3997     -16418.135    
     12950   159.47278      318.00194     -2333.3401      6.9467411     -2326.3934     -14383.556    
     13000   157.07505      313.22066     -2333.2952      6.8422943     -2326.4529     -16861.468    
     13050   144.68349      288.51086     -2332.6795      6.3025094     -2326.377      -15972.996    
     13100   149.72823      298.5705      -2333.0078      6.5222619     -2326.4855     -14685.969    
     13150   145.27738      289.69514     -2333.0266      6.32838       -2326.6982     -14940.473    
     13200   150.78417      300.67613     -2333.2044      6.5682593     -2326.6362     -13372.324    
     13250   152.64377      304.38432     -2333.2569      6.6492648     -2326.6077     -11720.755    
     13300   173.87002      346.71121     -2334.0838      7.5738942     -2326.5099     -13174.912    
     13350   166.61117      332.23648     -2333.9344      7.2576942     -2326.6767     -11747.738    
     13400   145.50573      290.15048     -2332.8713      6.3383269     -2326.533      -15292.837    
     13450   162.33754      323.7145      -2333.3575      7.0715319     -2326.2859     -12356.993    
     13500   158.99886      317.05691     -2333.2081      6.9260969     -2326.282      -15970.62     
     13550   167.27233      333.55489     -2333.4076      7.2864947     -2326.1211     -13677.053    
     13600   174.60096      348.16878     -2333.7953      7.6057346     -2326.1895     -16388.998    
     13650   150.76109      300.6301      -2332.8089      6.5672539     -2326.2417     -12285.022    
     13700   139.16556      277.50766     -2332.1874      6.062145      -2326.1253     -15795.701    
     13750   162.94734      324.93049     -2333.4787      7.0980949     -2326.3806     -15419.171    
     13800   169.91168      338.81796     -2333.6079      7.4014662     -2326.2064     -14922.649    
     13850   163.71773      326.46672     -2333.4236      7.1316538     -2326.2919     -12193.803    
     13900   159.94352      318.94062     -2333.2991      6.9672466     -2326.3318     -16283.015    
     13950   160.31823      319.68782     -2333.4428      6.9835691     -2326.4592     -12891.72     
     14000   170.05525      339.10427     -2333.9413      7.4077206     -2326.5335     -15291.602    
     14050   159.5623       318.18045     -2333.5655      6.9506406     -2326.6148     -17538.094    
     14100   155.65088      310.38076     -2333.2496      6.7802566     -2326.4693     -12993.421    
     14150   165.0046       329.03284     -2333.6121      7.1877107     -2326.4243     -16887.827    
     14200   161.26397      321.57371     -2333.5039      7.0247664     -2326.4791     -15688.915    
     14250   155.0573       309.19711     -2333.2919      6.7543999     -2326.5375     -13775.318    
     14300   143.69878      286.54727     -2332.795       6.2596149     -2326.5354     -14912.77     
     14350   164.07421      327.17757     -2333.7079      7.1471825     -2326.5608     -11714.434    
     14400   176.33973      351.63603     -2334.2059      7.6814765     -2326.5244     -14395.136    
     14450   162.50032      324.03909     -2333.5374      7.0786224     -2326.4588     -13164.286    
     14500   152.29396      303.68677     -2333.1014      6.6340267     -2326.4674     -13104.2      
     14550   148.69352      296.50721     -2333.1469      6.4771894     -2326.6697     -14092.53     
     14600   150.0955       299.30287     -2333.1972      6.5382605     -2326.659      -15616.585    
     14650   164.83665      328.69793     -2333.8944      7.1803946     -2326.714      -15774.117    
     14700   159.03522      317.1294      -2333.7687      6.9276804     -2326.8411     -16198.56     
     14750   162.05217      323.14545     -2333.584       7.0591009     -2326.5249     -13848.568    
     14800   149.86795      298.8491      -2333.1362      6.528348      -2326.6078     -14671.894    
     14850   156.9813       313.03372     -2333.622       6.8382105     -2326.7838     -19028.747    
     14900   165.89902      330.81639     -2333.9071      7.2266724     -2326.6805     -14322.137    
     14950   151.41119      301.92646     -2333.1825      6.5955728     -2326.587      -14148.549    
     15000   153.91977      306.92876     -2333.4904      6.7048479     -2326.7855     -16202.057    
     15050   160.51825      320.08668     -2333.6909      6.9922821     -2326.6986     -13415.473    
     15100   155.25084      309.58303     -2333.3826      6.7628304     -2326.6198     -12804.492    
     15150   158.59677      316.25511     -2333.5395      6.9085816     -2326.6309     -14469.262    
     15200   158.9028       316.86534     -2333.6474      6.9219122     -2326.7255     -13287.055    
     15250   165.10804      329.23911     -2333.9593      7.1922168     -2326.7671     -15128.492    
     15300   155.76215      310.60262     -2333.5823      6.7851033     -2326.7972     -15197.57     
     15350   153.59822      306.28757     -2333.5333      6.6908411     -2326.8424     -13671.929    
     15400   174.24847      347.46589     -2334.4761      7.59038       -2326.8858     -13215.998    
     15450   163.66316      326.35791     -2333.9678      7.1292769     -2326.8385     -15643.712    
     15500   159.95535      318.96421     -2333.8243      6.9677619     -2326.8566     -14037.891    
     15550   160.95273      320.95307     -2333.7768      7.0112084     -2326.7656     -15890.987    
     15600   158.29778      315.65889     -2333.6698      6.8955572     -2326.7742     -15786.54     
     15650   151.76734      302.63664     -2333.3176      6.6110867     -2326.7065     -13571.533    
     15700   147.77864      294.68286     -2333.1611      6.4373365     -2326.7237     -17911.723    
     15750   151.54501      302.19331     -2333.253       6.6014022     -2326.6516     -18138.534    
     15800   142.58308      284.32248     -2332.7584      6.2110144     -2326.5474     -13338.291    
     15850   159.02634      317.11169     -2333.4261      6.9272936     -2326.4988     -17978.008    
     15900   160.35443      319.76003     -2333.5449      6.9851464     -2326.5598     -13335.532    
     15950   161.60914      322.26202     -2333.6451      7.0398024     -2326.6053     -14490.683    
     16000   158.80899      316.67828     -2333.7145      6.9178258     -2326.7967     -15384.053    
     16050   168.47822      335.95953     -2333.9811      7.3390241     -2326.6421     -10445.483    
     16100   152.56918      304.23558     -2333.4304      6.6460154     -2326.7844     -16005.166    
     16150   166.07425      331.16582     -2334.0065      7.2343056     -2326.7722     -15206.624    
     16200   144.46142      288.06804     -2333.1117      6.2928362     -2326.8188     -15962.906    
     16250   155.56592      310.21134     -2333.6158      6.7765557     -2326.8393     -14016.856    
     16300   157.42237      313.91325     -2333.6385      6.8574238     -2326.7811     -16882.627    
     16350   165.96701      330.95197     -2334.0694      7.2296341     -2326.8398     -13147.862    
     16400   157.36854      313.80591     -2333.7102      6.8550791     -2326.8551     -15417.67     
     16450   160.77319      320.59505     -2333.9387      7.0033876     -2326.9353     -11538.488    
     16500   160.17778      319.40776     -2333.9489      6.9774511     -2326.9715     -15018.858    
     16550   154.77881      308.64177     -2333.8618      6.7422684     -2327.1195     -13732.766    
     16600   157.51161      314.09119     -2333.9271      6.861311      -2327.0658     -15873.244    
     16650   149.73923      298.59243     -2333.6537      6.522741      -2327.131      -16444.282    
     16700   147.02959      293.18918     -2333.6209      6.4047073     -2327.2162     -15343.386    
     16750   161.08598      321.21879     -2334.0031      7.0170131     -2326.9861     -15042.661    
     16800   153.21196      305.51734     -2333.7074      6.6740156     -2327.0334     -15194.924    
     16850   164.93338      328.89082     -2334.2527      7.1846083     -2327.068      -15826.266    
     16900   151.02142      301.14922     -2333.4589      6.5785939     -2326.8803     -15676.81     
     16950   158.03959      315.14404     -2333.5834      6.8843104     -2326.6991     -15685.171    
     17000   166.69538      332.4044      -2333.9865      7.2613624     -2326.7251     -12945.211    
     17050   165.68513      330.38988     -2334.1259      7.2173552     -2326.9085     -15875.926    
     17100   171.66248      342.30921     -2334.5342      7.4777325     -2327.0565     -13629.618    
     17150   158.64189      316.34507     -2333.7603      6.9105469     -2326.8497     -16953.631    
     17200   150.63433      300.37733     -2333.492       6.5617322     -2326.9303     -14685.162    
     17250   159.80777      318.66994     -2333.9756      6.9613334     -2327.0142     -14169.593    
     17300   155.95556      310.9883      -2333.9976      6.7935283     -2327.204      -16719.124    
     17350   158.16651      315.39712     -2333.8187      6.8898388     -2326.9289     -16389.239    
     17400   166.80397      332.62094     -2334.2152      7.2660927     -2326.9491     -13328.81     
     17450   189.51677      377.91214     -2335.0811      8.2554772     -2326.8257     -15078.808    
     17500   165.51021      330.04107     -2334.1546      7.2097356     -2326.9449     -14744.017    
     17550   156.93995      312.95126     -2333.9084      6.8364091     -2327.072      -15575.392    
     17600   172.31664      343.61365     -2334.6318      7.506228      -2327.1255     -15665.633    
     17650   172.49702      343.97334     -2334.6425      7.5140854     -2327.1284     -12340.092    
     17700   146.15263      291.44046     -2333.5209      6.3665065     -2327.1544     -15904.277    
     17750   149.69973      298.51367     -2333.8294      6.5210204     -2327.3084     -16367.322    
     17800   152.50708      304.11174     -2334.0108      6.6433102     -2327.3674     -14096.033    
     17850   161.99287      323.02719     -2334.5172      7.0565176     -2327.4606     -13268.366    
     17900   152.64039      304.37758     -2333.8233      6.6491175     -2327.1742     -12622.974    
     17950   152.03464      303.16967     -2333.8338      6.6227307     -2327.2111     -13057.782    
     18000   157.23993      313.54944     -2334.0918      6.8494765     -2327.2423     -10884.665    
     18050   141.52039      282.20339     -2333.3131      6.1647229     -2327.1484     -15909.98     
     18100   151.14439      301.39444     -2333.7812      6.5839509     -2327.1972     -14197.136    
     18150   146.24428      291.62321     -2333.6122      6.3704987     -2327.2417     -10696.25     
     18200   140.1762       279.52296     -2333.4518      6.1061692     -2327.3456     -15665.862    
     18250   146.49611      292.12538     -2333.6694      6.3814686     -2327.2879     -16908.267    
     18300   162.01606      323.07344     -2334.3663      7.0575279     -2327.3088     -15156.263    
     18350   155.78199      310.64219     -2334.2555      6.7859675     -2327.4695     -15314.36     
     18400   147.32733      293.7829      -2333.8563      6.4176771     -2327.4386     -14711.135    
     18450   159.37901      317.81495     -2334.7299      6.9426564     -2327.7873     -14358.124    
     18500   153.80986      306.70961     -2334.6017      6.7000606     -2327.9017     -12738.603    
     18550   158.35346      315.76991     -2334.5851      6.8979825     -2327.6871     -15081.782    
     18600   165.50887      330.03839     -2335.0257      7.209677      -2327.816      -18298.26     
     18650   161.82832      322.69907     -2334.8261      7.0493497     -2327.7768     -13814.97     
     18700   172.66479      344.30789     -2335.2208      7.5213937     -2327.6994     -13574.863    
     18750   166.32726      331.67033     -2334.8805      7.2453266     -2327.6352     -14816.692    
     18800   155.34178      309.76439     -2334.4218      6.766792      -2327.655      -14021.49     
     18850   158.62132      316.30405     -2334.5861      6.9096507     -2327.6764     -15068.042    
     18900   159.72688      318.50864     -2334.6718      6.9578099     -2327.714      -15428.741    
     18950   149.77579      298.66534     -2334.2677      6.5243338     -2327.7434     -12312.851    
     19000   157.25119      313.5719      -2334.6595      6.8499671     -2327.8095     -12591.174    
     19050   137.74358      274.6721      -2333.7681      6.0002023     -2327.7679     -17081.568    
     19100   137.51649      274.21927     -2333.8221      5.9903102     -2327.8318     -14982.739    
     19150   147.18874      293.50654     -2334.1819      6.4116399     -2327.7703     -15107.124    
     19200   144.80099      288.74518     -2334.0312      6.3076281     -2327.7236     -14727.257    
     19250   172.34896      343.6781      -2335.2108      7.5076359     -2327.7032     -14757.176    
     19300   148.13254      295.38855     -2334.1415      6.4527524     -2327.6887     -13259.948    
     19350   160.00208      319.0574      -2334.6742      6.9697976     -2327.7044     -14768.836    
     19400   158.2861       315.6356      -2334.6348      6.8950485     -2327.7397     -15375.188    
     19450   162.87441      324.78506     -2334.966       7.0949182     -2327.8711     -12814.216    
     19500   169.97916      338.95252     -2335.2424      7.4044059     -2327.838      -14705.887    
     19550   153.00546      305.10555     -2334.3139      6.66502       -2327.6489     -14449.08     
     19600   143.09543      285.34415     -2334.0324      6.2333327     -2327.7991     -16727.812    
     19650   135.38396      269.96683     -2333.8265      5.8974159     -2327.9291     -14189.01     
     19700   164.98709      328.99792     -2335.0331      7.1869478     -2327.8462     -14001.149    
     19750   162.4375       323.91383     -2334.743       7.075886      -2327.6671     -15715.039    
     19800   156.51682      312.1075      -2334.4402      6.8179772     -2327.6222     -13901.905    
     19850   171.78499      342.5535      -2334.9106      7.483069      -2327.4276     -13900.998    
     19900   169.79154      338.5784      -2335.0238      7.3962331     -2327.6276     -15772.354    
     19950   152.09303      303.2861      -2334.4087      6.625274      -2327.7835     -14095.762    
     20000   165.77198      330.56306     -2335.0897      7.2211383     -2327.8685     -12790.46     
     20050   170.62288      340.23616     -2335.3035      7.4324468     -2327.871      -13299.725    
     20100   153.52736      306.14627     -2334.5278      6.6877544     -2327.84       -16387.143    
     20150   152.19965      303.49872     -2334.4868      6.6299188     -2327.8569     -12514.684    
     20200   146.43803      292.00957     -2334.3134      6.3789386     -2327.9345     -13531.506    
     20250   136.63215      272.45583     -2333.8713      5.951788      -2327.9195     -14843.991    
     20300   147.57738      294.28151     -2334.3117      6.4285692     -2327.8832     -13743.377    
     20350   147.35721      293.84248     -2334.2955      6.4189785     -2327.8765     -14490.186    
     20400   156.6881       312.44905     -2334.8503      6.8254383     -2328.0249     -14986.107    
     20450   159.70391      318.46283     -2335.0363      6.9568092     -2328.0795     -15694.11     
     20500   151.03285      301.17202     -2334.6535      6.5790921     -2328.0745     -12131.265    
     20550   165.09781      329.21871     -2335.3928      7.1917709     -2328.201      -13322.043    
     20600   167.62439      334.25693     -2335.5916      7.3018307     -2328.2898     -14347.137    
     20650   144.01053      287.16892     -2334.467       6.2731948     -2328.1938     -14368.747    
     20700   161.70062      322.44443     -2335.3094      7.0437872     -2328.2656     -14957.617    
     20750   145.49595      290.13098     -2334.5796      6.337901      -2328.2417     -15592.895    
     20800   142.52826      284.21316     -2334.4579      6.2086264     -2328.2492     -14434.577    
     20850   135.78476      270.76606     -2334.2507      5.9148749     -2328.3358     -15560.879    
     20900   144.33814      287.82222     -2334.6591      6.2874661     -2328.3716     -18247.115    
     20950   148.34426      295.81073     -2334.8456      6.461975      -2328.3836     -17800.494    
     21000   147.86314      294.85134     -2334.8648      6.4410171     -2328.4238     -15643.175    
     21050   146.39883      291.93139     -2334.8718      6.3772308     -2328.4946     -14290.761    
     21100   153.1101       305.31423     -2335.0616      6.6695785     -2328.392      -14111.697    
     21150   142.41062      283.97857     -2334.5175      6.2035019     -2328.314      -13045.185    
     21200   160.16247      319.37723     -2335.3262      6.9767842     -2328.3494     -16090.615    
     21250   160.94193      320.93154     -2335.4265      7.0107381     -2328.4158     -15560.887    
     21300   144.56191      288.26843     -2334.595       6.2972137     -2328.2978     -15550.678    
     21350   139.41559      278.00623     -2334.3891      6.0730362     -2328.3161     -14740.837    
     21400   138.30557      275.79277     -2334.3727      6.0246832     -2328.348      -14424.838    
     21450   143.14396      285.44091     -2334.6029      6.2354465     -2328.3674     -14457.442    
     21500   147.88077      294.88651     -2334.8434      6.4417854     -2328.4016     -15017.158    
     21550   161.21112      321.46832     -2335.3944      7.0224641     -2328.372      -15141.664    
     21600   148.68472      296.48966     -2334.7653      6.476806      -2328.2885     -13425.454    
     21650   152.99899      305.09267     -2334.8412      6.6647386     -2328.1765     -13572.174    
     21700   147.05363      293.23713     -2334.5539      6.4057546     -2328.1482     -13757.64     
     21750   159.61463      318.28479     -2334.8771      6.95292       -2327.9241     -13226.026    
     21800   154.86998      308.82356     -2334.6838      6.7462398     -2327.9375     -16706.685    
     21850   165.94782      330.9137      -2335.0775      7.2287979     -2327.8487     -16689.985    
     21900   159.39635      317.84952     -2334.8038      6.9434115     -2327.8603     -14396.541    
     21950   154.86085      308.80537     -2334.51        6.7458423     -2327.7642     -16204.051    
     22000   159.2879       317.63328     -2334.9317      6.9386876     -2327.993      -17028.707    
     22050   145.63565      290.40954     -2334.0272      6.3439862     -2327.6832     -13365.764    
     22100   157.40851      313.88561     -2334.72        6.8568201     -2327.8632     -17018.125    
     22150   150.87215      300.85156     -2334.4234      6.5720916     -2327.8513     -14679.392    
     22200   168.65371      336.30946     -2334.9293      7.3466683     -2327.5826     -16147.186    
     22250   168.79825      336.59769     -2334.9476      7.3529646     -2327.5946     -14374.815    
     22300   151.78763      302.67712     -2334.4356      6.6119709     -2327.8236     -13404.41     
     22350   166.30148      331.61893     -2334.8344      7.2442038     -2327.5902     -14722.831    
     22400   157.6544       314.37594     -2334.3817      6.8675313     -2327.5141     -17040.952    
     22450   159.23994      317.53764     -2334.2901      6.9365984     -2327.3535     -13035.304    
     22500   176.15089      351.25948     -2335.1684      7.6732508     -2327.4952     -12933.461    
     22550   178.67975      356.30223     -2335.1784      7.7834096     -2327.395      -12847.099    
     22600   165.13039      329.28369     -2334.6433      7.1931905     -2327.4501     -13480.453    
     22650   149.37454      297.86521     -2333.8658      6.506855      -2327.3589     -13685.631    
     22700   159.10066      317.25989     -2334.473       6.930531      -2327.5425     -15667.716    
     22750   163.76656      326.56409     -2334.949       7.133781      -2327.8152     -14197.964    
     22800   159.17533      317.40878     -2334.7002      6.9337836     -2327.7665     -14891.412    
     22850   151.2571       301.61918     -2334.4552      6.5888604     -2327.8663     -12423.6      
     22900   155.90601      310.8895      -2334.5728      6.79137       -2327.7814     -18559.186    
     22950   155.67845      310.43573     -2334.554       6.7814576     -2327.7725     -15439.643    
     23000   162.896        324.82811     -2334.8804      7.0958585     -2327.7845     -16059.242    
     23050   152.97181      305.03846     -2334.3871      6.6635543     -2327.7235     -15221.624    
     23100   169.53532      338.06748     -2335.083       7.3850721     -2327.698      -15314.148    
     23150   142.4882       284.13326     -2334.3102      6.2068811     -2328.1033     -16243.126    
     23200   145.67654      290.49108     -2334.4242      6.3457673     -2328.0784     -17608.636    
     23250   156.51347      312.10082     -2334.9585      6.8178312     -2328.1407     -13957.902    
     23300   144.59066      288.32575     -2334.4213      6.2984657     -2328.1228     -14538.488    
     23350   146.24259      291.61984     -2334.4066      6.370425      -2328.0362     -12406.11     
     23400   149.10327      297.32428     -2334.5144      6.4950383     -2328.0193     -15268.629    
     23450   143.02656      285.2068      -2334.1834      6.2303325     -2327.9531     -15921.403    
     23500   147.89335      294.91159     -2334.3879      6.4423333     -2327.9456     -13871.608    
     23550   157.84111      314.74825     -2334.7323      6.8756643     -2327.8566     -13420.93     
     23600   157.33409      313.7372      -2334.761       6.8535781     -2327.9074     -17764.778    
     23650   158.12215      315.30866     -2334.8163      6.8879065     -2327.9284     -15205.575    
     23700   158.61702      316.29547     -2334.8491      6.9094634     -2327.9396     -15699.09     
     23750   148.16321      295.44972     -2334.4351      6.4540887     -2327.981      -15197.367    
     23800   149.5897       298.29425     -2334.4666      6.5162273     -2327.9504     -14837.937    
     23850   161.03431      321.11576     -2334.9781      7.0147624     -2327.9634     -12829.861    
     23900   161.7393       322.52156     -2335.1471      7.0454721     -2328.1016     -15415.02     
     23950   148.55358      296.22814     -2334.466       6.4710932     -2327.9949     -15691.487    
     24000   153.44863      305.98927     -2334.6244      6.6843248     -2327.9401     -14709.359    
     24050   155.93282      310.94295     -2334.7107      6.7925377     -2327.9182     -15852.875    
     24100   153.19495      305.48343     -2334.77        6.6732746     -2328.0968     -16270.003    
     24150   159.40221      317.86121     -2334.8523      6.9436669     -2327.9086     -17266.724    
     24200   158.53955      316.141       -2334.7876      6.9060889     -2327.8815     -13367.46     
     24250   153.58925      306.26969     -2334.552       6.6904506     -2327.8615     -18366.687    
     24300   162.59433      324.22656     -2334.9637      7.0827176     -2327.881      -17885.786    
     24350   159.46756      317.99152     -2334.8926      6.9465135     -2327.9461     -15011.357    
     24400   159.81447      318.68329     -2334.9577      6.9616251     -2327.9961     -17870.39     
     24450   172.30419      343.58883     -2335.549       7.5056857     -2328.0433     -16680.37     
     24500   163.1739       325.38227     -2335.1423      7.1079641     -2328.0343     -15639.85     
     24550   157.14019      313.35056     -2334.8477      6.8451319     -2328.0026     -14217.424    
     24600   145.70339      290.54463     -2334.4348      6.3469371     -2328.0878     -13288.196    
     24650   152.02794      303.1563      -2334.8048      6.6224387     -2328.1824     -13330.817    
     24700   157.137        313.3442      -2334.8424      6.8449929     -2327.9974     -14792.399    
     24750   160.40749      319.86582     -2335.0603      6.9874575     -2328.0729     -12662.668    
     24800   160.5565       320.16296     -2335.0567      6.9939485     -2328.0627     -12910.27     
     24850   161.25664      321.55909     -2335.1438      7.024447      -2328.1194     -14397.211    
     24900   164.03953      327.10842     -2335.3358      7.1456718     -2328.1901     -13881.047    
     24950   156.98592      313.04294     -2335.119       6.8384119     -2328.2806     -15821.081    
     25000   162.69606      324.42942     -2335.2018      7.0871492     -2328.1146     -15598.131    
     25050   164.53067      328.08779     -2335.1894      7.167066      -2328.0223     -13576.366    
     25100   166.98816      332.98822     -2335.2361      7.2741159     -2327.962      -15867.496    
     25150   169.68383      338.36362     -2335.1532      7.3915413     -2327.7616     -14778.584    
     25200   169.93708      338.86862     -2335.0435      7.4025729     -2327.641      -16115.962    
     25250   169.80268      338.60061     -2335.2307      7.3967183     -2327.834      -16099.33     
     25300   175.79047      350.54077     -2335.5605      7.6575506     -2327.903      -15307.018    
     25350   171.45896      341.90336     -2335.5721      7.4688668     -2328.1032     -14931.805    
     25400   157.31159      313.69234     -2334.8534      6.852598      -2328.0008     -15122.074    
     25450   156.84966      312.77121     -2334.9936      6.8324759     -2328.1611     -13476.6      
     25500   150.39368      299.89745     -2334.7538      6.5512492     -2328.2026     -18003.918    
     25550   162.41094      323.86087     -2335.3599      7.0747292     -2328.2851     -14256.276    
     25600   160.46845      319.98738     -2335.3446      6.9901131     -2328.3545     -14932.87     
     25650   166.01661      331.05088     -2335.5031      7.2317948     -2328.2713     -16469.372    
     25700   150.45212      300.01398     -2334.9627      6.5537948     -2328.4089     -16657.309    
     25750   163.65813      326.34787     -2335.5143      7.1290577     -2328.3853     -13243.294    
     25800   164.00725      327.04405     -2335.642       7.1442656     -2328.4978     -16124.032    
     25850   148.66409      296.44851     -2334.9837      6.4759072     -2328.5078     -15013.623    
     25900   157.12125      313.31279     -2335.3052      6.8443068     -2328.4609     -16615.85     
     25950   160.54892      320.14785     -2335.4429      6.9936184     -2328.4492     -13557.795    
     26000   149.62893      298.37249     -2335.0131      6.5179364     -2328.4952     -16231.195    
     26050   147.84861      294.82238     -2334.9326      6.4403844     -2328.4922     -15696.03     
     26100   159.87048      318.79498     -2335.4848      6.9640649     -2328.5207     -18044.876    
     26150   147.24709      293.62289     -2335.005       6.4141817     -2328.5908     -18731.36     
     26200   154.96253      309.00812     -2335.2445      6.7502714     -2328.4942     -14266.133    
     26250   153.89913      306.88761     -2335.0305      6.7039489     -2328.3265     -15021.841    
     26300   175.47059      349.90288     -2335.6347      7.6436161     -2327.9911     -16282.516    
     26350   151.05977      301.2257      -2334.597       6.5802646     -2328.0167     -15514.879    
     26400   167.25039      333.51113     -2335.2457      7.2855388     -2327.9602     -17645.056    
     26450   152.35215      303.8028      -2334.6269      6.6365614     -2327.9903     -16277.932    
     26500   151.97639      303.05351     -2334.5148      6.6201931     -2327.8946     -15077.994    
     26550   184.17655      367.26329     -2335.6308      8.0228535     -2327.6079     -15023.152    
     26600   149.19813      297.51343     -2334.086       6.4991704     -2327.5868     -17238.864    
     26650   180.74677      360.42402     -2335.2085      7.87345       -2327.335      -14725.96     
     26700   160.51323      320.07668     -2334.1517      6.9920637     -2327.1597     -17417.014    
     26750   159.53087      318.11778     -2334.1549      6.9492716     -2327.2056     -14395.6      
     26800   167.20814      333.42687     -2334.5515      7.2836982     -2327.2678     -15951.432    
     26850   175.37788      349.71803     -2334.9664      7.6395779     -2327.3268     -15786.705    
     26900   180.24011      359.41371     -2335.2338      7.8513797     -2327.3824     -15358.322    
     26950   174.11341      347.19657     -2335.0032      7.5844968     -2327.4187     -17810.767    
     27000   169.04292      337.08558     -2334.7508      7.3636225     -2327.3872     -16994.923    
     27050   188.78531      376.45355     -2335.1764      8.2236144     -2326.9528     -17316.787    
     27100   158.79534      316.65106     -2333.9021      6.9172312     -2326.9848     -16050.932    
     27150   189.73278      378.34289     -2335.116       8.2648869     -2326.8511     -13483.351    
     27200   166.86143      332.73551     -2334.1727      7.2685955     -2326.9041     -18120.993    
     27250   155.36318      309.80704     -2333.7257      6.7677238     -2326.958      -18416.594    
     27300   163.75909      326.54919     -2334.1754      7.1334554     -2327.042      -18393.354    
     27350   180.56205      360.05568     -2334.9545      7.8654036     -2327.0891     -19540.135    
     27400   178.56735      356.07808     -2334.8895      7.7785131     -2327.111      -16958.376    
     27450   173.55724      346.08751     -2334.3907      7.5602693     -2326.8305     -16885.788    
     27500   162.35236      323.74406     -2333.9965      7.0721774     -2326.9244     -15509.155    
     27550   168.14695      335.29895     -2334.3154      7.3245937     -2326.9908     -14063.68     
     27600   179.8312       358.59831     -2334.8165      7.8335674     -2326.9829     -17314.084    
     27650   182.44093      363.80232     -2334.966       7.9472488     -2327.0188     -16374.964    
     27700   187.91234      374.71278     -2335.2299      8.1855874     -2327.0443     -15070.234    
     27750   179.63339      358.20386     -2334.3308      7.8249506     -2326.5058     -13834.779    
     27800   168.43401      335.87137     -2333.9187      7.3370982     -2326.5816     -19219.378    
     27850   178.37266      355.68986     -2334.4403      7.7700323     -2326.6702     -19346.265    
     27900   195.84186      390.52489     -2335.1649      8.5310024     -2326.6339     -17468.398    
     27950   170.13076      339.25484     -2334.191       7.4110099     -2326.7799     -13722.514    
     28000   181.50594      361.93788     -2334.704       7.9065202     -2326.7974     -16994.835    
     28050   177.62564      354.20025     -2334.6239      7.7374918     -2326.8864     -17766.586    
     28100   163.5956       326.22317     -2334.2776      7.1263336     -2327.1513     -15992.313    
     28150   169.77699      338.54939     -2334.3202      7.3955994     -2326.9246     -18531.829    
     28200   178.09691      355.13999     -2334.6279      7.7580204     -2326.8699     -16751.035    
     28250   174.56923      348.1055      -2334.5066      7.6043522     -2326.9023     -19540.893    
     28300   172.93404      344.8448      -2334.4574      7.5331225     -2326.9243     -17838.459    
     28350   177.70486      354.35822     -2334.7995      7.7409426     -2327.0586     -18507.121    
     28400   163.39025      325.8137      -2334.356       7.1173886     -2327.2386     -17253.519    
     28450   163.24374      325.52154     -2334.4419      7.1110065     -2327.3309     -17170.763    
     28500   171.26394      341.51448     -2334.9887      7.4603718     -2327.5284     -17383.356    
     28550   154.82647      308.73681     -2334.2467      6.7443448     -2327.5024     -18390.377    
     28600   164.53358      328.09359     -2334.8571      7.1671929     -2327.6899     -18019.878    
     28650   169.61558      338.22751     -2335.1902      7.388568      -2327.8016     -19336.453    
     28700   169.24039      337.47935     -2335.1931      7.3722245     -2327.8209     -17446.065    
     28750   164.10058      327.23016     -2334.9438      7.1483312     -2327.7955     -20505.398    
     28800   180.60637      360.14406     -2335.3376      7.8673341     -2327.4703     -16698.91     
     28850   177.93092      354.80899     -2335.4604      7.7507899     -2327.7096     -16050.566    
     28900   167.75953      334.5264      -2335.0426      7.3077173     -2327.7349     -17296.946    
     28950   174.44081      347.84943     -2335.4096      7.5987585     -2327.8108     -18502.826    
     29000   181.48551      361.89715     -2335.7339      7.9056304     -2327.8282     -17510.63     
     29050   173.44085      345.85542     -2335.3629      7.5551994     -2327.8077     -20213.673    
     29100   183.42871      365.77205     -2335.8613      7.9902775     -2327.871      -17638.893    
     29150   184.18649      367.28312     -2335.9378      8.0232868     -2327.9145     -19770.489    
     29200   170.92419      340.83699     -2335.3851      7.4455719     -2327.9395     -18075.283    
     29250   170.21315      339.41912     -2335.5176      7.4145986     -2328.103      -16994.332    
     29300   181.99706      362.91721     -2336.2622      7.9279135     -2328.3343     -16075.562    
     29350   180.56335      360.05828     -2336.1968      7.8654603     -2328.3313     -17979.032    
     29400   164.53731      328.10103     -2335.5885      7.1673554     -2328.4211     -17588.632    
     29450   174.34789      347.66414     -2336.1032      7.5947107     -2328.5084     -19398.951    
     29500   151.78229      302.66647     -2335.0944      6.6117382     -2328.4826     -19987.381    
     29550   180.8105       360.55111     -2336.3965      7.8762262     -2328.5202     -17481.238    
     29600   168.01649      335.03881     -2335.9937      7.3189109     -2328.6748     -13630.519    
     29650   173.21957      345.41418     -2336.1045      7.5455604     -2328.5589     -19144.185    
     29700   166.3154       331.64668     -2335.9167      7.2448099     -2328.6719     -15767.4      
     29750   174.9587       348.88214     -2336.4562      7.6213179     -2328.8349     -16062.074    
     29800   164.65653      328.33877     -2336.1013      7.1725487     -2328.9287     -17046.165    
     29850   167.26729      333.54483     -2336.2708      7.2862749     -2328.9846     -18033.935    
     29900   149.54684      298.20879     -2335.315       6.5143604     -2328.8007     -18013.558    
     29950   178.36772      355.68001     -2336.8051      7.7698173     -2329.0353     -19690.826    
     30000   152.8786       304.85259     -2335.762       6.659494      -2329.1025     -15203.122    
     30050   159.10065      317.25987     -2336.0497      6.9305306     -2329.1192     -18696.89     
     30100   170.57831      340.14727     -2336.6898      7.4305051     -2329.2593     -14362.262    
     30150   165.02671      329.07693     -2336.531       7.1886738     -2329.3423     -15027.26     
     30200   152.46287      304.0236      -2336.0287      6.6413846     -2329.3873     -14765.593    
     30250   150.65888      300.42628     -2335.8721      6.5628014     -2329.3093     -15445.283    
     30300   161.18056      321.40739     -2336.4075      7.0211331     -2329.3864     -14454.279    
     30350   157.25732      313.58413     -2336.4252      6.8502342     -2329.575      -17815.657    
     30400   161.42228      321.88939     -2336.7625      7.0316624     -2329.7309     -14774.4      
     30450   160.19748      319.44704     -2336.5191      6.9783093     -2329.5408     -15483.472    
     30500   159.34287      317.74288     -2336.5473      6.9410819     -2329.6063     -17618.06     
     30550   153.16334      305.4204      -2336.5476      6.6718977     -2329.8757     -17282.896    
     30600   145.14749      289.43612     -2336.2683      6.3227218     -2329.9455     -19303.083    
     30650   148.73956      296.599       -2336.5136      6.4791947     -2330.0344     -19446.402    
     30700   149.02075      297.15972     -2336.4925      6.4914436     -2330.0011     -18177.725    
     30750   140.24282      279.65581     -2336.2028      6.1090713     -2330.0937     -16774.413    
     30800   157.18109      313.43211     -2337.0429      6.8469134     -2330.196      -16669.607    
     30850   150.67828      300.46498     -2336.681       6.5636468     -2330.1174     -20817.753    
     30900   142.27808      283.71428     -2336.3112      6.1977283     -2330.1135     -16708.144    
     30950   149.47798      298.07147     -2336.5855      6.5113607     -2330.0741     -15095.443    
     31000   148.10452      295.33269     -2336.6334      6.4515322     -2330.1819     -17143.294    
     31050   146.49302      292.11922     -2336.5542      6.381334      -2330.1729     -18095.611    
     31100   160.954        320.95562     -2337.2511      7.011264      -2330.2398     -17678.026    
     31150   152.87922      304.85384     -2336.9545      6.6595213     -2330.295      -12607.955    
     31200   151.68276      302.468       -2336.858       6.6074026     -2330.2506     -18122.65     
     31250   157.9776       315.02042     -2337.238       6.88161       -2330.3564     -16114.64     
     31300   136.05659      271.30811     -2336.301       5.926716      -2330.3743     -14930.759    
[...]
    191700   157.62342      314.31415     -2359.1723      6.8661814     -2352.3061     -20466.688    
    191750   165.46476      329.95045     -2359.6465      7.2077558     -2352.4387     -20814.33     
    191800   148.54847      296.21796     -2358.9116      6.4708708     -2352.4408     -20419.006    
    191850   159.29092      317.63929     -2359.4927      6.9388191     -2352.5538     -20858.159    
    191900   149.26093      297.63866     -2359.0984      6.5019061     -2352.5965     -20597.922    
    191950   145.64814      290.43446     -2358.9889      6.3445305     -2352.6444     -20029.919    
    192000   157.92142      314.9084      -2359.6508      6.8791629     -2352.7717     -24023.314    
    192050   153.36315      305.81882     -2359.4597      6.6806012     -2352.7791     -19778.129    
    192100   150.33368      299.77781     -2359.1372      6.5486357     -2352.5885     -23260.909    
    192150   148.90661      296.93212     -2359.1334      6.4864717     -2352.6469     -21800.021    
    192200   151.01239      301.13122     -2359.1697      6.5782009     -2352.5914     -22632.83     
    192250   143.8767       286.90205     -2358.9829      6.2673652     -2352.7156     -23077.764    
    192300   146.57537      292.28344     -2359.1631      6.3849213     -2352.7782     -20955.162    
    192350   146.82554      292.78229     -2359.1489      6.3958188     -2352.7531     -22827.563    
    192400   156.4896       312.05323     -2359.4999      6.8167918     -2352.6831     -21595.905    
    192450   171.6555       342.29528     -2360.1493      7.4774282     -2352.6719     -20943.122    
    192500   151.68502      302.47249     -2359.3311      6.6075007     -2352.7236     -20309.997    
    192550   150.5302       300.16968     -2359.2717      6.5571961     -2352.7145     -23129.413    
    192600   154.28151      307.65012     -2359.5068      6.720606      -2352.7862     -19102.177    
    192650   164.12464      327.27812     -2359.9257      7.149379      -2352.7764     -21718.339    
    192700   157.47495      314.01809     -2359.5556      6.859714      -2352.6959     -23058.797    
    192750   143.20645      285.56552     -2359.0356      6.2381686     -2352.7974     -20382.479    
    192800   154.87326      308.83012     -2359.5008      6.746383      -2352.7544     -21852.732    
    192850   166.68284      332.37938     -2359.9226      7.2608158     -2352.6618     -20147.506    
    192900   152.43255      303.96314     -2359.3431      6.6400639     -2352.703      -20238.343    
    192950   158.94449      316.94848     -2359.5656      6.9237284     -2352.6419     -19627.83     
    193000   152.36006      303.81857     -2359.2627      6.636906      -2352.6258     -19059.539    
    193050   157.99132      315.04778     -2359.4598      6.8822076     -2352.5776     -20819.081    
    193100   148.04221      295.20842     -2359.0441      6.4488175     -2352.5953     -21009.725    
    193150   152.95082      304.99661     -2359.314       6.6626401     -2352.6513     -22165.254    
    193200   159.50564      318.06746     -2359.5764      6.9481724     -2352.6283     -23616.354    
    193250   148.24505      295.6129      -2359.0906      6.4576534     -2352.633      -22570.684    
    193300   160.21884      319.48965     -2359.6125      6.97924       -2352.6333     -19640.651    
    193350   144.65332      288.45071     -2359.0165      6.3011956     -2352.7153     -23448.465    
    193400   150.94142      300.98969     -2359.2658      6.5751091     -2352.6907     -23062.556    
    193450   143.77061      286.6905      -2358.844       6.2627438     -2352.5812     -18779.836    
    193500   155.30928      309.69958     -2359.3537      6.7653763     -2352.5884     -22747.333    
    193550   152.88147      304.85832     -2359.1502      6.6596192     -2352.4906     -22492.077    
    193600   161.53354      322.11126     -2359.5521      7.0365091     -2352.5156     -22981.097    
    193650   160.89662      320.8412      -2359.5508      7.0087646     -2352.5421     -21647.369    
    193700   152.90616      304.90754     -2359.2271      6.6606944     -2352.5664     -20881.499    
    193750   151.71656      302.53538     -2359.3178      6.6088747     -2352.709      -22743.32     
    193800   155.05866      309.19982     -2359.4003      6.7544592     -2352.6459     -19851.522    
    193850   141.93012      283.02042     -2358.8472      6.1825711     -2352.6646     -19318.906    
    193900   151.73404      302.57024     -2359.2495      6.6096362     -2352.6398     -22285.056    
    193950   153.98841      307.06565     -2359.2483      6.7078383     -2352.5405     -23655.202    
    194000   153.62573      306.34243     -2359.3554      6.6920395     -2352.6634     -23192.525    
    194050   156.70818      312.48909     -2359.3535      6.826313      -2352.5272     -21002.762    
    194100   148.60959      296.33983     -2359.0425      6.4735331     -2352.569      -21589.647    
    194150   149.67596      298.46627     -2359.0879      6.5199851     -2352.5679     -23142.63     
    194200   153.17811      305.44984     -2359.2366      6.6725409     -2352.5641     -23087.2      
    194250   147.38235      293.89262     -2359.1436      6.4200739     -2352.7235     -20357.313    
    194300   152.08543      303.27095     -2359.2552      6.6249431     -2352.6302     -23348.179    
    194350   158.18128      315.42657     -2359.5192      6.8904822     -2352.6288     -20878.582    
    194400   127.96588      255.17457     -2358.271       5.5742795     -2352.6967     -20774.542    
    194450   145.82627      290.78967     -2358.9453      6.3522901     -2352.593      -22447.066    
    194500   153.73846      306.56722     -2359.3722      6.6969501     -2352.6752     -20197.027    
    194550   146.97199      293.07433     -2359.0319      6.4021984     -2352.6297     -22099.324    
    194600   167.75937      334.52609     -2359.7974      7.3077105     -2352.4897     -21783.783    
    194650   154.17003      307.42781     -2358.9745      6.7157496     -2352.2587     -22856.235    
    194700   148.75573      296.63125     -2358.7017      6.4798991     -2352.2218     -20561.133    
    194750   148.00746      295.13914     -2358.6766      6.447304      -2352.2292     -24591.367    
    194800   138.54033      276.26089     -2358.5774      6.0349093     -2352.5425     -19739.059    
    194850   154.98522      309.05337     -2359.0703      6.7512598     -2352.319      -22683.993    
    194900   145.5272       290.1933      -2358.6529      6.3392623     -2352.3137     -20779.031    
    194950   146.26537      291.66526     -2358.8154      6.3714173     -2352.4439     -17812.449    
    195000   152.90979      304.91478     -2358.9767      6.6608526     -2352.3158     -20971.323    
    195050   147.9191       294.96294     -2358.7056      6.4434551     -2352.2621     -21472.425    
    195100   149.06818      297.25429     -2358.7549      6.4935094     -2352.2614     -23029.834    
    195150   151.16936      301.44422     -2358.7814      6.5850384     -2352.1963     -22104.704    
    195200   151.87259      302.84652     -2358.7963      6.6156714     -2352.1806     -20403.801    
    195250   157.47637      314.02092     -2358.9362      6.8597759     -2352.0764     -19836.757    
    195300   148.18553      295.49422     -2358.5208      6.4550607     -2352.0658     -22201.413    
    195350   163.1149       325.26463     -2359.2186      7.1053944     -2352.1132     -24039.046    
    195400   154.67671      308.43818     -2358.8515      6.737821      -2352.1137     -24005.3      
    195450   166.64367      332.30129     -2359.4304      7.2591099     -2352.1713     -21358.016    
    195500   165.53245      330.08542     -2359.4725      7.2107044     -2352.2618     -21600.487    
    195550   146.72494      292.58168     -2358.6617      6.3914364     -2352.2702     -22003.185    
    195600   157.71716      314.50109     -2359.1814      6.8702651     -2352.3111     -19968.656    
    195650   148.37915      295.88031     -2358.8185      6.4634949     -2352.355      -22827.663    
    195700   156.52358      312.12098     -2359.2452      6.8182717     -2352.4269     -23740.157    
    195750   154.47643      308.0388      -2359.2028      6.7290967     -2352.4737     -22112.056    
    195800   150.05823      299.22855     -2358.9635      6.536637      -2352.4268     -21973.237    
    195850   155.75477      310.58792     -2359.2435      6.7847821     -2352.4587     -23486.359    
    195900   147.66329      294.45283     -2358.9519      6.4323117     -2352.5196     -23724.031    
    195950   161.46514      321.97486     -2359.5597      7.0335293     -2352.5262     -19939.443    
    196000   155.15014      309.38224     -2359.3532      6.758444      -2352.5947     -21981.862    
    196050   157.32154      313.71218     -2359.3596      6.8530314     -2352.5066     -21184.011    
    196100   157.74224      314.55109     -2359.1915      6.8713573     -2352.3201     -23126.102    
    196150   158.94581      316.95111     -2359.4507      6.9237857     -2352.5269     -20717.682    
    196200   143.41718      285.98574     -2358.6711      6.2473483     -2352.4238     -20308.19     
    196250   164.08526      327.1996      -2359.5401      7.1476637     -2352.3924     -21538.967    
    196300   161.749        322.54091     -2359.5887      7.0458948     -2352.5428     -22488.658    
    196350   167.20718      333.42497     -2359.8333      7.2836566     -2352.5496     -22751.02     
    196400   146.19262      291.52019     -2358.8623      6.3682482     -2352.4941     -20242.572    
    196450   155.39241      309.86535     -2359.2928      6.7689975     -2352.5238     -23783.914    
    196500   152.99988      305.09443     -2359.2016      6.664777      -2352.5369     -19179.954    
    196550   146.31305      291.76033     -2358.7531      6.3734941     -2352.3796     -21816.873    
    196600   154.30337      307.6937      -2359.0505      6.7215581     -2352.3289     -21915.456    
    196650   156.14738      311.3708      -2359.0447      6.8018841     -2352.2429     -21103.132    
    196700   145.46044      290.06016     -2358.6227      6.336354      -2352.2864     -21426.271    
    196750   155.20747      309.49654     -2358.9853      6.760941      -2352.2243     -22083.819    
    196800   158.77861      316.6177      -2359.0311      6.9165024     -2352.1146     -21491.915    
    196850   163.68069      326.39285     -2359.2777      7.1300403     -2352.1477     -18381.667    
    196900   162.77406      324.58495     -2359.2121      7.0905467     -2352.1216     -22764.736    
    196950   165.73113      330.4816      -2359.3482      7.2193589     -2352.1288     -24187.319    
    197000   161.33953      321.72439     -2359.2122      7.0280578     -2352.1841     -21802.665    
    197050   178.20329      355.35212     -2359.8506      7.7626545     -2352.0879     -21653.085    
    197100   157.386        313.84073     -2358.917       6.8558395     -2352.0612     -19295.877    
    197150   140.68414      280.53582     -2358.2189      6.1282951     -2352.0906     -21422.046    
    197200   149.87932      298.87178     -2358.703       6.5288434     -2352.1741     -19689.124    
    197250   155.05231      309.18716     -2358.9098      6.7541825     -2352.1557     -22957.413    
    197300   173.63723      346.24702     -2359.5656      7.563754      -2352.0019     -23584.493    
    197350   164.68304      328.39163     -2359.1534      7.1737035     -2351.9797     -24364.424    
    197400   157.38118      313.83111     -2358.8623      6.8556294     -2352.0067     -21176.565    
    197450   173.19019      345.35558     -2359.5659      7.5442804     -2352.0217     -21392.231    
    197500   162.63179      324.30126     -2359.0841      7.0843495     -2351.9997     -20862.598    
    197550   160.35524      319.76163     -2359.0181      6.9851814     -2352.0329     -21761.435    
    197600   159.338        317.73316     -2359.0703      6.9408696     -2352.1295     -19674.469    
    197650   153.99994      307.08864     -2358.8366      6.7083404     -2352.1283     -19783.963    
    197700   165.84081      330.70032     -2359.288       7.2241367     -2352.0639     -20946.401    
    197750   167.4228       333.85493     -2359.2557      7.293049      -2351.9627     -24065.297    
    197800   169.20104      337.4009      -2359.2758      7.3705106     -2351.9053     -18688.219    
    197850   160.02402      319.10114     -2358.9614      6.9707531     -2351.9906     -22012.707    
    197900   157.45024      313.96881     -2358.8882      6.8586376     -2352.0295     -23998.593    
    197950   171.34339      341.67291     -2359.5211      7.4638327     -2352.0573     -22355.311    
    198000   164.66336      328.35238     -2359.2249      7.1728461     -2352.052      -19604.323    
    198050   162.81224      324.66108     -2359.213       7.0922099     -2352.1208     -22930.124    
    198100   159.41848      317.89365     -2359.076       6.9443755     -2352.1316     -23473.708    
    198150   159.81349      318.68135     -2359.1748      6.9615827     -2352.2132     -23826.533    
    198200   160.52359      320.09733     -2359.2312      6.9925148     -2352.2387     -19490.029    
    198250   153.35197      305.79654     -2358.9532      6.6801145     -2352.2731     -24577.13     
    198300   160.32393      319.69919     -2359.2581      6.9838174     -2352.2743     -23996.385    
    198350   153.59886      306.28884     -2358.9773      6.6908689     -2352.2865     -22962.354    
    198400   166.8693       332.75121     -2359.4666      7.2689384     -2352.1977     -22553.838    
    198450   161.45493      321.9545      -2359.1438      7.0330847     -2352.1107     -24384.711    
    198500   153.30828      305.70942     -2358.9238      6.6782114     -2352.2456     -20787.316    
    198550   155.92156      310.9205      -2359.0334      6.7920472     -2352.2414     -17258.368    
    198600   159.44665      317.94983     -2359.3712      6.9456028     -2352.4256     -24967.043    
    198650   147.60136      294.32934     -2358.8235      6.4296139     -2352.3939     -20629.954    
    198700   156.33711      311.74914     -2359.1674      6.810149      -2352.3573     -22441.573    
    198750   159.01762      317.09431     -2359.3811      6.926914      -2352.4542     -20871.388    
    198800   164.10364      327.23626     -2359.6544      7.1484645     -2352.5059     -21028.688    
    198850   158.77091      316.60235     -2359.3836      6.9161671     -2352.4674     -19176.777    
    198900   167.75769      334.52274     -2359.8747      7.3076373     -2352.567      -20545.461    
    198950   138.5619       276.30391     -2358.7243      6.0358492     -2352.6885     -22836.657    
    199000   148.08047      295.28472     -2359.2084      6.4504842     -2352.7579     -21448.316    
    199050   160.75954      320.56785     -2359.6713      7.0027933     -2352.6685     -24542.136    
    199100   155.36717      309.81501     -2359.3379      6.767898      -2352.57       -20144.933    
    199150   163.5219       326.07622     -2359.7414      7.1231235     -2352.6183     -23702.205    
    199200   165.87697      330.77242     -2359.8653      7.2257118     -2352.6396     -22848.504    
    199250   164.25277      327.53364     -2359.7497      7.1549607     -2352.5947     -19245.269    
    199300   157.4171       313.90275     -2359.4417      6.8571944     -2352.5845     -21999.302    
    199350   166.88695      332.7864      -2359.8763      7.2697071     -2352.6066     -21998.605    
    199400   168.23948      335.48346     -2359.8815      7.3286243     -2352.5529     -22248.316    
    199450   154.83751      308.75881     -2359.375       6.7448253     -2352.6302     -19688.245    
    199500   150.71892      300.54601     -2359.0887      6.5654169     -2352.5233     -20866.923    
    199550   148.77955      296.67876     -2358.9747      6.4809369     -2352.4937     -21338.318    
    199600   156.86456      312.80094     -2359.4709      6.8331253     -2352.6378     -23521.008    
    199650   149.8989       298.91082     -2359.1399      6.5296963     -2352.6102     -21597.848    
    199700   158.88232      316.8245      -2359.55        6.9210199     -2352.629      -22243.992    
    199750   157.46596      314.00017     -2359.343       6.8593226     -2352.4836     -23448.704    
    199800   158.63608      316.33348     -2359.2942      6.9102937     -2352.3839     -21137.656    
    199850   153.89971      306.88878     -2359.1404      6.7039745     -2352.4364     -21615.065    
    199900   154.07386      307.23603     -2359.1451      6.7115602     -2352.4336     -21967.182    
    199950   155.42715      309.93462     -2359.22        6.7705107     -2352.4495     -23407.571    
    200000   145.21034      289.56145     -2358.8353      6.3254597     -2352.5099     -24359.089    
colvars: Saving collective variables state to "out.colvars.state".
Loop time of 945.857 on 4 procs for 200000 steps with 338 atoms

Performance: 9.135 ns/day, 2.627 hours/ns, 211.448 timesteps/s, 71.470 katom-step/s
143.4% CPU use with 4 MPI tasks x 1 OpenMP threads

MPI task timing breakdown:
Section |  min time  |  avg time  |  max time  |%varavg| %total
---------------------------------------------------------------
Pair    | 772.39     | 834.42     | 907.16     | 179.1 | 88.22
Neigh   | 0.19108    | 1.5625     | 2.4973     |  72.1 |  0.17
Comm    | 11.01      | 70.632     | 144.08     | 566.0 |  7.47
Output  | 4.3745     | 5.3023     | 6.3289     |  38.6 |  0.56
Modify  | 17.204     | 31.4       | 70.534     | 403.8 |  3.32
Other   |            | 2.537      |            |       |  0.27

Nlocal:           84.5 ave         118 max          14 min
Histogram: 1 0 0 0 0 0 0 1 0 2
Nghost:         1138.5 ave        1623 max         754 min
Histogram: 1 0 1 0 0 1 0 0 0 1
Neighs:              0 ave           0 max           0 min
Histogram: 4 0 0 0 0 0 0 0 0 0
FullNghs:      14792.5 ave       22658 max        1446 min
Histogram: 1 0 0 0 0 1 0 0 0 2

Total # of neighbors = 59170
Ave neighs/atom = 175.05917
Neighbor list builds = 2763
Dangerous builds = 0
write_data final.data
System init for write_data ...
Generated 0 of 6 mixed pair_coeff terms from geometric mixing rule

CITE-CITE-CITE-CITE-CITE-CITE-CITE-CITE-CITE-CITE-CITE-CITE-CITE

Your simulation uses code contributions which should be cited:

- Colvars module (Fiorin2013, plus other works listed for specific features)


% Colvars module:
% Colvars-LAMMPS interface:
% Metadynamics colvar bias implementation:
% Optimal rotation via flexible fitting:
% coordNum colvar component:

@article{Fiorin2013,
  author = {Fiorin, Giacomo and Klein, Michael L.{} and H\'enin, J\'er\^ome},
  title = {Using collective variables to drive molecular dynamics simulations},
  journal = {Mol. Phys.},
  year = {2013},
  volume = {111},
  number = {22-23},
  pages = {3345--3362},
  publisher = {Taylor & Francis},
  doi = {10.1080/00268976.2013.813594},
  url = {https://doi.org/10.1080/00268976.2013.813594}
}


% LAMMPS engine:

@article{Thompson2022,
  title = {{LAMMPS} - a flexible simulation tool for particle-based materials modeling at the atomic, meso, and continuum scales},
  author = {Thompson, Aidan P. and Aktulga, H. Metin and Berger, Richard and Bolintineanu, Dan S. and Brown, W. Michael and Crozier, Paul S. and {in't Veld}, Pieter J. and Kohlmeyer, Axel and Moore, Stan G. and Nguyen, Trung Dac and Shan, Ray and Stevens, Mark J. and Tranchida, Julien and Trott, Christian and Plimpton, Steven J.},
  journal = {Comp. Phys. Comm.},
  volume = {271},
  pages = {108171},
  year = {2022},
  doi = {10.1016/j.cpc.2021.108171},
  url = {https://doi.org/10.1016/j.cpc.2021.108171}
}

CITE-CITE-CITE-CITE-CITE-CITE-CITE-CITE-CITE-CITE-CITE-CITE-CITE

Total wall time: 0:16:08
