 # Fe168 O56 H113 Cl
  
         338  atoms
           4  atom types
 
      0.000000000000      11.328000000000  xlo xhi
      0.000000000000      12.015000000000  ylo yhi
      0.000000000000      32.000000000000  zlo zhi
 
Masses
 
            1   55.84500000             # Fe
            2   15.99900000             # O
            3   1.00800000              # H
            4   35.45000000             # Cl
 
Atoms # atomic
 
         1    1        0.000000000000       0.000000000000       0.000000000000
         2    1        0.000000000000       2.002540050000       2.002880000000
         3    1       11.328000000000       0.000000000000       4.005120000000
         4    1        0.000000000000       2.002540050000       6.008000000000
         5    1        0.000000000000       0.000000000000       8.009920000000
         6    1        0.000000000000       2.002540050000      10.011808000000
         7    1        0.000000000000       0.000000000000      12.015008000000
         8    1        1.416000000000       2.002540050000       0.000000000000
         9    1        1.416000000000       0.000000000000       2.002880000000
        10    1        1.416000000000       2.002540050000       4.005120000000
        11    1        1.416000000000       0.000000000000       6.008000000000
        12    1        1.416000000000       2.002540050000       8.009920000000
        13    1        1.416000000000       0.000000000000      10.011808000000
        14    1        1.416000000000       2.002540050000      12.015008000000
        15    1        2.832000000000       0.000000000000       0.000000000000
        16    1        2.832000000000       2.002540050000       2.002880000000
        17    1        2.832000000000       0.000000000000       4.005120000000
        18    1        2.832000000000       2.002540050000       6.008000000000
        19    1        2.832000000000       0.000000000000       8.009920000000
        20    1        2.832000000000       2.002540050000      10.011808000000
        21    1        2.832000000000       0.000000000000      12.015008000000
        22    1        4.248000000000       2.002540050000       0.000000000000
        23    1        4.248000000000       0.000000000000       2.002880000000
        24    1        4.248000000000       2.002540050000       4.005120000000
        25    1        4.248000000000       0.000000000000       6.008000000000
        26    1        4.248000000000       2.002540050000       8.009920000000
        27    1        4.248000000000       0.000000000000      10.011808000000
        28    1        4.248000000000       2.002540050000      12.015008000000
        29    1        5.664000000000       0.000000000000       0.000000000000
        30    1        5.664000000000       2.002540050000       2.002880000000
        31    1        5.664000000000       0.000000000000       4.005120000000
        32    1        5.664000000000       2.002540050000       6.008000000000
        33    1        5.664000000000       0.000000000000       8.009920000000
        34    1        5.664000000000       2.002540050000      10.011808000000
        35    1        5.664000000000       0.000000000000      12.015008000000
        36    1        7.080000000000       2.002540050000       0.000000000000
        37    1        7.080000000000       0.000000000000       2.002880000000
        38    1        7.080000000000       2.002540050000       4.005120000000
        39    1        7.080000000000       0.000000000000       6.008000000000
        40    1        7.080000000000       2.002540050000       8.009920000000
        41    1        7.080000000000       0.000000000000      10.011808000000
        42    1        7.080000000000       2.002540050000      12.015008000000
        43    1        8.496000000000       0.000000000000       0.000000000000
        44    1        8.496000000000       2.002540050000       2.002880000000
        45    1        8.496000000000       0.000000000000       4.005120000000
        46    1        8.496000000000       2.002540050000       6.008000000000
        47    1        8.496000000000       0.000000000000       8.009920000000
        48    1        8.496000000000       2.002540050000      10.011808000000
        49    1        8.496000000000       0.000000000000      12.015008000000
        50    1        9.912000000000       2.002540050000       0.000000000000
        51    1        9.912000000000       0.000000000000       2.002880000000
        52    1        9.912000000000       2.002540050000       4.005120000000
        53    1        9.912000000000       0.000000000000       6.008000000000
        54    1        9.912000000000       2.002540050000       8.009920000000
        55    1        9.912000000000       0.000000000000      10.011808000000
        56    1        9.912000000000       2.002540050000      12.015008000000
        57    1        0.000000000000       4.004959950000       0.000000000000
        58    1        0.000000000000       6.007500000000       2.002880000000
        59    1        0.000000000000       4.004959950000       4.005120000000
        60    1        0.000000000000       6.007500000000       6.008000000000
        61    1        0.000000000000       4.004959950000       8.009920000000
        62    1       11.328000000000       6.007500000000      10.011808000000
        63    1        0.000000000000       4.004959950000      12.015008000000
        64    1        1.416000000000       6.007500000000       0.000000000000
        65    1        1.416000000000       4.004959950000       2.002880000000
        66    1        1.416000000000       6.007500000000       4.005120000000
        67    1        1.416000000000       4.004959950000       6.008000000000
        68    1        1.416000000000       6.007500000000       8.009920000000
        69    1        1.416000000000       4.004959950000      10.011808000000
        70    1        1.416000000000       6.007500000000      12.015008000000
        71    1        2.832000000000       4.004959950000       0.000000000000
        72    1        2.832000000000       6.007500000000       2.002880000000
        73    1        2.832000000000       4.004959950000       4.005120000000
        74    1        2.832000000000       6.007500000000       6.008000000000
        75    1        2.832000000000       4.004959950000       8.009920000000
        76    1        2.832000000000       6.007500000000      10.011808000000
        77    1        2.832000000000       4.004959950000      12.015008000000
        78    1        4.248000000000       6.007500000000       0.000000000000
        79    1        4.248000000000       4.004959950000       2.002880000000
        80    1        4.248000000000       6.007500000000       4.005120000000
        81    1        4.248000000000       4.004959950000       6.008000000000
        82    1        4.248000000000       6.007500000000       8.009920000000
        83    1        4.248000000000       4.004959950000      10.011808000000
        84    1        4.248000000000       6.007500000000      12.015008000000
        85    1        5.664000000000       4.004959950000       0.000000000000
        86    1        5.664000000000       6.007500000000       2.002880000000
        87    1        5.664000000000       4.004959950000       4.005120000000
        88    1        5.664000000000       6.007500000000       6.008000000000
        89    1        5.664000000000       4.004959950000       8.009920000000
        90    1        5.664000000000       6.007500000000      10.011808000000
        91    1        5.664000000000       4.004959950000      12.015008000000
        92    1        7.080000000000       6.007500000000       0.000000000000
        93    1        7.080000000000       4.004959950000       2.002880000000
        94    1        7.080000000000       6.007500000000       4.005120000000
        95    1        7.080000000000       4.004959950000       6.008000000000
        96    1        7.080000000000       6.007500000000       8.009920000000
        97    1        7.080000000000       4.004959950000      10.011808000000
        98    1        7.080000000000       6.007500000000      12.015008000000
        99    1        8.496000000000       4.004959950000       0.000000000000
       100    1        8.496000000000       6.007500000000       2.002880000000
       101    1        8.496000000000       4.004959950000       4.005120000000
       102    1        8.496000000000       6.007500000000       6.008000000000
       103    1        8.496000000000       4.004959950000       8.009920000000
       104    1        8.496000000000       6.007500000000      10.011808000000
       105    1        8.496000000000       4.004959950000      12.015008000000
       106    1        9.912000000000       6.007500000000       0.000000000000
       107    1        9.912000000000       4.004959950000       2.002880000000
       108    1        9.912000000000       6.007500000000       4.005120000000
       109    1        9.912000000000       4.004959950000       6.008000000000
       110    1        9.912000000000       6.007500000000       8.009920000000
       111    1        9.912000000000       4.004959950000      10.011808000000
       112    1        9.912000000000       6.007500000000      12.015008000000
       113    1       11.328000000000       8.010040050000       0.000000000000
       114    1        0.000000000000      10.012495995000       2.002880000000
       115    1       11.328000000000       8.010040050000       4.005120000000
       116    1        0.000000000000      10.012495995000       6.008000000000
       117    1       11.328000000000       8.010040050000       8.009920000000
       118    1        0.000000000000      10.012495995000      10.011808000000
       119    1        0.000000000000       8.010040050000      12.015008000000
       120    1        1.416000000000      10.012495995000       0.000000000000
       121    1        1.416000000000       8.010040050000       2.002880000000
       122    1        1.416000000000      10.012495995000       4.005120000000
       123    1        1.416000000000       8.010040050000       6.008000000000
       124    1        1.416000000000      10.012495995000       8.009920000000
       125    1        1.416000000000       8.010040050000      10.011808000000
       126    1        1.416000000000      10.012495995000      12.015008000000
       127    1        2.832000000000       8.010040050000       0.000000000000
       128    1        2.832000000000      10.012495995000       2.002880000000
       129    1        2.832000000000       8.010040050000       4.005120000000
       130    1        2.832000000000      10.012495995000       6.008000000000
       131    1        2.832000000000       8.010040050000       8.009920000000
       132    1        2.832000000000      10.012495995000      10.011808000000
       133    1        2.832000000000       8.010040050000      12.015008000000
       134    1        4.248000000000      10.012495995000       0.000000000000
       135    1        4.248000000000       8.010040050000       2.002880000000
       136    1        4.248000000000      10.012495995000       4.005120000000
       137    1        4.248000000000       8.010040050000       6.008000000000
       138    1        4.248000000000      10.012495995000       8.009920000000
       139    1        4.248000000000       8.010040050000      10.011808000000
       140    1        4.248000000000      10.012495995000      12.015008000000
       141    1        5.664000000000       8.010040050000       0.000000000000
       142    1        5.664000000000      10.012495995000       2.002880000000
       143    1        5.664000000000       8.010040050000       4.005120000000
       144    1        5.664000000000      10.012495995000       6.008000000000
       145    1        5.664000000000       8.010040050000       8.009920000000
       146    1        5.664000000000      10.012495995000      10.011808000000
       147    1        5.664000000000       8.010040050000      12.015008000000
       148    1        7.080000000000      10.012495995000       0.000000000000
       149    1        7.080000000000       8.010040050000       2.002880000000
       150    1        7.080000000000      10.012495995000       4.005120000000
       151    1        7.080000000000       8.010040050000       6.008000000000
       152    1        7.080000000000      10.012495995000       8.009920000000
       153    1        7.080000000000       8.010040050000      10.011808000000
       154    1        7.080000000000      10.012495995000      12.015008000000
       155    1        8.496000000000       8.010040050000       0.000000000000
       156    1        8.496000000000      10.012495995000       2.002880000000
       157    1        8.496000000000       8.010040050000       4.005120000000
       158    1        8.496000000000      10.012495995000       6.008000000000
       159    1        8.496000000000       8.010040050000       8.009920000000
       160    1        8.496000000000      10.012495995000      10.011808000000
       161    1        8.496000000000       8.010040050000      12.015008000000
       162    1        9.912000000000      10.012495995000       0.000000000000
       163    1        9.912000000000       8.010040050000       2.002880000000
       164    1        9.912000000000      10.012495995000       4.005120000000
       165    1        9.912000000000       8.010040050000       6.008000000000
       166    1        9.912000000000      10.012495995000       8.009920000000
       167    1        9.912000000000       8.010040050000      10.011808000000
       168    1        9.912000000000      10.012495995000      12.015008000000
       169    2        1.653185664000       7.771253940000      20.116384000000
       170    2        4.317973056000       9.785604735000      17.720000000000
       171    2        2.276135040000       2.072275110000      16.291104000000
       172    2        0.676598784000       8.925643125000      22.541184000000
       173    2        1.700989824000       3.730741605000      21.512608000000
       174    2        5.820065856000       5.511532815000      20.846208000000
       175    2        0.227987328000       5.572689165000      20.763392000000
       176    2        4.639926144000       0.763373025000      16.476800000000
       177    2        4.250605440000       8.211747870000      25.123904000000
       178    2        3.812404416000       4.295879145000      15.405696000000
       179    2        1.853317440000       0.451175265000      18.824608000000
       180    2        8.944396224000       4.851272520000      21.144608000000
       181    2        6.953013120000       5.603471595000      18.309984000000
       182    2        2.877413952000      11.865605490000      14.388416000000
       183    2        0.311134848000       4.453984530000      14.822208000000
       184    2        3.969251904000       1.636827480000      20.049184000000
       185    2        9.233203584000       2.772004680000      14.956512000000
       186    2        5.711045184000       7.697746170000      16.807904000000
       187    2        3.718087488000       4.193763660000      19.196096000000
       188    2        8.507180736000       8.218067760000      14.100512000000
       189    2        3.737152512000       0.166924395000      22.056992000000
       190    2        1.221622848000      11.504903175000      22.823584000000
       191    2        9.061765632000       5.897610810000      15.387488000000
       192    2       11.064703296000       3.800416590000      17.773600000000
       193    2        2.879826816000       4.619803545000      24.551904000000
       194    2        6.636225600000       1.453586715000      14.707712000000
       195    2        5.480735616000       5.781473820000      25.149504000000
       196    2        3.826824960000       7.070803470000      15.109504000000
       197    2        7.520466624000       9.995614920000      21.713984000000
       198    2        4.119370560000       2.264382945000      14.033504000000
       199    2        6.703072128000       8.995426245000      19.112416000000
       200    2        5.275585536000       3.266650215000      17.118816000000
       201    2        5.064023808000       9.762980490000      22.885312000000
       202    2        7.530775104000       5.969965140000      23.185600000000
       203    2        9.247635456000       2.110566915000      20.919584000000
       204    2        6.794692992000       4.843354635000      14.787584000000
       205    2        7.790594112000       2.971045170000      17.184192000000
       206    2        9.756795072000       1.583276625000      18.257088000000
       207    2        7.476332736000       9.523821915000      16.097504000000
       208    2        4.425985536000       8.111939265000      20.555584000000
       209    2        9.585073920000       5.933715885000      18.165888000000
       210    2        1.896488448000       7.597997640000      24.557216000000
       211    2        1.289364288000       6.822633645000      15.636512000000
       212    2        9.695997696000      10.934298810000      16.874400000000
       213    2        1.005858432000      10.321894260000      15.482912000000
       214    2        9.489171072000       8.327368215000      22.065408000000
       215    2        4.901240448000      10.443594195000      15.156512000000
       216    2        8.545367424000      11.796302970000      14.216512000000
       217    2        1.606786176000       9.770622030000      18.109792000000
       218    2        0.138915264000       0.948163725000      14.944704000000
       219    2        1.647011904000       5.774204745000      18.156192000000
       220    2        6.712009920000       0.764406315000      20.977184000000
       221    2       11.138901696000       8.343612495000      14.125696000000
       222    2        0.471675264000       1.396527480000      21.030688000000
       223    2        9.718472448000       8.683769160000      18.815392000000
       224    2        6.412848768000      11.713099095000      18.335488000000
       225    3        2.697751872000       5.438049075000      13.103904000000
       226    3        2.634994752000       7.924144815000      20.189312000000
       227    3        5.748574848000       0.990756900000      21.058208000000
       228    3        1.144263936000       9.971260515000      17.247296000000
       229    3       10.323398976000       8.735722020000      22.434400000000
       230    3       10.659296832000       1.414525950000      15.317184000000
       231    3        0.954395328000       2.305570365000      21.209696000000
       232    3        4.959001920000       9.804888810000      14.433504000000
       233    3        0.962290944000       5.126055570000      18.464288000000
       234    3        4.697404416000      10.726703640000      17.917504000000
       235    3        3.301409664000       9.897404310000      17.736000000000
       236    3        1.524567552000       1.691651925000      15.733888000000
       237    3        2.541889920000       2.901418245000      15.875296000000
       238    3        1.082843520000       8.485942185000      21.795200000000
       239    3        1.181657664000       8.496863820000      23.280608000000
       240    3        2.380896384000       3.618473445000      20.839712000000
       241    3        1.044249024000       4.445489925000      21.241696000000
       242    3        6.575122368000       5.413057875000      21.532704000000
       243    3        5.201806272000       4.730029155000      20.951296000000
       244    3       10.596800256000       5.375390850000      20.829504000000
       245    3        0.426850368000       6.522955515000      20.645312000000
       246    3        3.677578560000       0.882429660000      16.370912000000
       247    3        5.039725248000       0.244805625000      15.737984000000
       248    3        4.569216768000       8.722565595000      24.374208000000
       249    3        4.880691456000       7.436924550000      25.098592000000
       250    3        3.901181952000       5.256057870000      15.132608000000
       251    3        4.547625600000       4.052575395000      16.083200000000
       252    3        1.393808448000       0.889097985000      19.578912000000
       253    3        1.657490304000       0.938611800000      17.990400000000
       254    3        8.619577152000       4.922185050000      22.063808000000
       255    3        9.076106880000       3.881373660000      21.025216000000
       256    3        6.689342592000       5.448790485000      19.246496000000
       257    3        7.026984960000       4.803969465000      17.706400000000
       258    3        2.143268928000      11.214296370000      14.685216000000
       259    3        3.679810176000      11.390003730000      14.618496000000
       260    3        0.754070976000       5.348224935000      14.919904000000
       261    3        0.730689984000       3.890444985000      14.073184000000
       262    3        3.888709824000       2.604924090000      19.799296000000
       263    3        3.331814016000       1.196549820000      19.368096000000
       264    3        9.957833088000       3.428708535000      14.846016000000
       265    3        8.829077184000       2.540151225000      14.096384000000
       266    3        6.146164992000       6.922886805000      17.392096000000
       267    3        5.239766400000       8.394327810000      17.372992000000
       268    3        4.418225856000       4.085124030000      18.502496000000
       269    3        2.903468352000       4.625270370000      18.842816000000
       270    3        8.562642624000       7.324800570000      14.477184000000
       271    3        7.907227200000       8.692756380000      14.766400000000
       272    3        3.866688192000       0.621355725000      21.164896000000
       273    3        4.139466432000      11.313996840000      22.194912000000
       274    3        2.090718336000      11.755704285000      22.430816000000
       275    3        0.961577280000      10.564200765000      22.706816000000
       276    3        8.264093184000       5.337147105000      15.267584000000
       277    3        9.695714496000       5.443095375000      14.784512000000
       278    3       10.400202816000       4.531817700000      18.017696000000
       279    3       11.218005120000       3.868385445000      16.792288000000
       280    3        2.977768704000       3.711253275000      24.867200000000
       281    3        2.717723136000       4.497755175000      23.582400000000
       282    3        5.772862080000       1.758335175000      14.388800000000
       283    3        6.903000000000       2.011274955000      15.483104000000
       284    3        4.628904000000       5.351168610000      24.944608000000
       285    3        5.590254720000       5.642868780000      26.106400000000
       286    3        4.421930112000       7.465075695000      15.833984000000
       287    3        4.082497920000       7.407355635000      14.221408000000
       288    3        7.260794880000       9.445736430000      20.887296000000
       289    3        8.269134144000       9.485373915000      22.077216000000
       290    3        3.432769152000       1.572775515000      14.406592000000
       291    3        4.028621952000       3.227709600000      14.495712000000
       292    3        7.646875776000       8.756135505000      18.990816000000
       293    3        6.569752896000       9.910632825000      18.743712000000
       294    3        5.042126784000       2.327149305000      16.927392000000
       295    3        6.260260608000       3.114612405000      16.999808000000
       296    3        5.977615680000      10.011102255000      22.547104000000
       297    3        4.696045056000       9.280674360000      22.107808000000
       298    3        6.911314752000       6.282607455000      23.866688000000
       299    3        8.044726464000       6.720554205000      22.770208000000
       300    3       10.084604736000       1.697767560000      21.206400000000
       301    3        8.448898176000       1.484801685000      20.948704000000
       302    3        6.045764928000       5.302772190000      14.300896000000
       303    3        7.210917696000       4.303977255000      14.038208000000
       304    3        8.370100608000       3.203295120000      16.428896000000
       305    3        8.399938560000       2.276854515000      17.717408000000
       306    3        9.514398528000       1.691892225000      19.267904000000
       307    3       10.237804608000       2.450495295000      18.022688000000
       308    3        6.996308736000       8.742438405000      16.529696000000
       309    3        6.792585984000      10.182195855000      15.842496000000
       310    3        5.101417536000       8.526204450000      19.949088000000
       311    3        4.825388160000       7.259234715000      20.875584000000
       312    3        8.656834944000       5.718659400000      18.550496000000
       313    3        9.460148736000       6.121342125000      17.231488000000
       314    3        2.815189248000       7.874306595000      24.685312000000
       315    3        2.006075520000       6.634322550000      24.349888000000
       316    3        2.194460160000       7.028835075000      15.259616000000
       317    3        1.473104448000       6.402541185000      16.540992000000
       318    3        9.679232256000      11.750501790000      17.465696000000
       319    3        8.726252928000      10.653003630000      16.795200000000
       320    3        0.357964800000      11.060396235000      15.553216000000
       321    3        9.606302592000       8.392465485000      21.124288000000
       322    3        4.538042112000       9.955725120000      15.938912000000
       323    3        9.281336256000       0.292985775000      14.546496000000
       324    3        7.713461760000       0.319310640000      14.377696000000
       325    3        0.275123136000       7.799657400000      14.867904000000
       326    3        1.496813952000      10.663696980000      18.595808000000
       327    3        0.151829184000       1.242266895000      13.980000000000
       328    3        0.594652032000       9.671534325000      14.896608000000
       329    3        1.691304384000       6.469765110000      18.837888000000
       330    3        6.833151552000      11.897204940000      21.382112000000
       331    3       10.179204864000       8.557287255000      14.375808000000
       332    3        0.744759360000       0.669247515000      21.693504000000
       333    3        9.760148160000       9.324469035000      18.094400000000
       334    3        9.814511232000       7.747992900000      18.501984000000
       335    3        1.455489408000       8.335322145000      19.329600000000
       336    3        5.880817920000       0.291880395000      17.739200000000
       337    3        6.510099648000      12.001675365000      19.279200000000
       338    4        5.714001792000       0.369281025000      26.558304000000
