LAMMPS (2 Aug 2023)
OMP_NUM_THREADS environment is not set. Defaulting to 1 thread. (src/comm.cpp:98)
  using 1 OpenMP thread(s) per MPI task
Loaded 1 plugins from /work/home/baoergen22b/apprepo/deepmd/v2.2.9-dtk23.10/app/lib/deepmd_lmp
Reading data file ...
  orthogonal box = (0 0 0) to (11.328 12.015 32)
  1 by 1 by 4 MPI processor grid
  reading atoms ...
  339 atoms
  read_data CPU = 0.033 seconds
Summary of lammps deepmd module ...
  >>> Info of deepmd-kit:
  installed to:       /work/home/wys974137909/shangcheng/deepmd-kit/20240715/deepmd-kit_v2.2.9/install
  source:             v2.2.9
  source branch:      HEAD
  source commit:      be43748
  source commit at:   2024-02-04 13:44:12 +0800
  support model ver.: 1.1 
  build variant:      rocm
  build with tf inc:  /work/home/wys974137909/shangcheng/miniconda3/envs/deepmd-kit-v2.2.9/lib/python3.8/site-packages/tensorflow/include;/work/home/wys974137909/shangcheng/miniconda3/envs/deepmd-kit-v2.2.9/lib/python3.8/site-packages/tensorflow/include
  build with tf lib:  /work/home/wys974137909/shangcheng/miniconda3/envs/deepmd-kit-v2.2.9/lib/python3.8/site-packages/tensorflow/lib/libtensorflow_cc.so
  set tf intra_op_parallelism_threads: 0
  set tf inter_op_parallelism_threads: 0
  >>> Info of lammps module:
  use deepmd-kit at:  /work/home/wys974137909/shangcheng/deepmd-kit/20240715/deepmd-kit_v2.2.9/install
  source:             v2.2.9
  source branch:      HEAD
  source commit:      be43748
  source commit at:   2024-02-04 13:44:12 +0800
  build float prec:   double
  build with tf inc:  /work/home/wys974137909/shangcheng/miniconda3/envs/deepmd-kit-v2.2.9/lib/python3.8/site-packages/tensorflow/include;/work/home/wys974137909/shangcheng/miniconda3/envs/deepmd-kit-v2.2.9/lib/python3.8/site-packages/tensorflow/include
  build with tf lib:  /work/home/wys974137909/shangcheng/miniconda3/envs/deepmd-kit-v2.2.9/lib/python3.8/site-packages/tensorflow/lib/libtensorflow_cc.so
INVALID_ARGUMENT: Tensor spin_attr/ntypes_spin:0, specified in either feed_devices or fetch_devices was not found in the Graph
INVALID_ARGUMENT: Tensor spin_attr/ntypes_spin:0, specified in either feed_devices or fetch_devices was not found in the Graph
INVALID_ARGUMENT: Tensor spin_attr/ntypes_spin:0, specified in either feed_devices or fetch_devices was not found in the Graph
INVALID_ARGUMENT: Tensor spin_attr/ntypes_spin:0, specified in either feed_devices or fetch_devices was not found in the Graph
  >>> Info of model(s):
  using   1 model(s): graph-compress.pb 
  rcut in model:      6
  ntypes in model:    4
168 atoms in group fixed
171 atoms in group mobile

CITE-CITE-CITE-CITE-CITE-CITE-CITE-CITE-CITE-CITE-CITE-CITE-CITE

Your simulation uses code contributions which should be cited:
- GPU package (short-range, long-range and three-body potentials): doi:10.1016/j.cpc.2010.12.021, doi:10.1016/j.cpc.2011.10.012, doi:10.1016/j.cpc.2013.08.002, doi:10.1016/j.commatsci.2014.10.068, doi:10.1016/j.cpc.2016.10.020, doi:10.3233/APC200086
- USER-DEEPMD package:
The log file lists these citations in BibTeX format.

CITE-CITE-CITE-CITE-CITE-CITE-CITE-CITE-CITE-CITE-CITE-CITE-CITE

Generated 0 of 6 mixed pair_coeff terms from geometric mixing rule
Neighbor list info ...
  update: every = 1 steps, delay = 0 steps, check = yes
  max neighbors/atom: 2000, page size: 100000
  master list distance cutoff = 8
  ghost atom cutoff = 8
  binsize = 4, bins = 3 4 8
  1 neighbor lists, perpetual/occasional/extra = 1 0 0
  (1) pair deepmd, perpetual
      attributes: full, newton on
      pair build: full/bin/atomonly
      stencil: full/bin/3d
      bin: standard
Setting up Verlet run ...
  Unit style    : metal
  Current step  : 0
  Time step     : 0.0005
colvars: Creating proxy instance
colvars: ----------------------------------------------------------------------
colvars: Initializing the collective variables module, version 2023-05-01.
colvars: Please cite Fiorin et al, Mol Phys 2013:
colvars:   https://doi.org/10.1080/00268976.2013.813594
colvars: as well as all other papers listed below for individual features used.
colvars: This version was built with the C++11 standard or higher.
colvars: Using LAMMPS interface, version "2023-04-12".
colvars: ----------------------------------------------------------------------
colvars: Reading new configuration from file "pmf.in":
colvars: # units = "" [default]
colvars: # smp = on [default]
colvars: # colvarsTrajFrequency = 100 [default]
colvars: # colvarsRestartFrequency = 0 [default]
colvars: # scriptedColvarForces = off [default]
colvars: # scriptingAfterBiases = off [default]
colvars: ----------------------------------------------------------------------
colvars:   Initializing a new collective variable.
colvars:   # name = "d"
colvars:   Initializing a new "distance" component.
colvars:     # name = "" [default]
colvars:     # componentCoeff = 1 [default]
colvars:     # componentExp = 1 [default]
colvars:     # period = 0 [default]
colvars:     # wrapAround = 0 [default]
colvars:     # forceNoPBC = off [default]
colvars:     # scalable = on [default]
colvars:       Initializing atom group "group1".
colvars:       # name = "" [default]
colvars:       # centerToOrigin = off [default]
colvars:       # centerToReference = off [default]
colvars:       # rotateToReference = off [default]
colvars:       # atomsOfGroup = "" [default]
colvars:       # indexGroup = "" [default]
colvars:       # psfSegID =  [default]
colvars:       # atomsFile = "" [default]
colvars:       # dummyAtom = ( 0 , 0 , 0 ) [default]
colvars:       # enableFitGradients = on [default]
colvars:       # printAtomIDs = off [default]
colvars:       Atom group "group1" defined with 1 atoms requested.
colvars:       Initializing atom group "group2".
colvars:       # name = "" [default]
colvars:       # centerToOrigin = off [default]
colvars:       # centerToReference = off [default]
colvars:       # rotateToReference = off [default]
colvars:       # atomsOfGroup = "" [default]
colvars:       # indexGroup = "" [default]
colvars:       # psfSegID =  [default]
colvars:       # atomsFile = "" [default]
colvars:       # dummyAtom = ( 0 , 0 , 0 ) [default]
colvars:       # enableFitGradients = on [default]
colvars:       # printAtomIDs = off [default]
colvars:       Atom group "group2" defined with 1 atoms requested.
colvars:     # oneSiteSystemForce = off [default]
colvars:     # oneSiteTotalForce = off [default]
colvars:   All components initialized.
colvars:   # timeStepFactor = 1 [default]
colvars:   # width = 0.02
colvars:   # lowerBoundary = 0.5
colvars:   # upperBoundary = 2.2
colvars:   # hardLowerBoundary = on
colvars:   # hardUpperBoundary = on
colvars:   # expandBoundaries = off [default]
colvars:   # extendedLagrangian = off [default]
colvars:   # outputValue = on [default]
colvars:   # outputVelocity = off [default]
colvars:   # outputTotalForce = on
colvars:   # outputAppliedForce = on
colvars:   # subtractAppliedForce = off [default]
colvars:   # runAve = off [default]
colvars:   # corrFunc = off [default]
colvars: ----------------------------------------------------------------------
colvars: Collective variables initialized, 1 in total.
colvars: ----------------------------------------------------------------------
colvars:   Initializing a new "metadynamics" instance.
colvars:   # name = "metadynamics1" [default]
colvars:   # colvars = { d }
colvars:   # stepZeroData = off [default]
colvars:   # outputEnergy = off [default]
colvars:   # outputFreq = 0 [default]
colvars:   # timeStepFactor = 1 [default]
colvars:   # writeTISamples = on
colvars:   # writeTIPMF = on
colvars:   # hillWeight = 0.2
colvars:   # newHillFrequency = 500
colvars:   # gaussianSigmas =  [default]
colvars:   # hillWidth = 1
colvars:   Half-widths of the Gaussian hills (sigma's):
colvars:   d: 0.01
colvars:   # multipleReplicas = off [default]
colvars:   # useGrids = on [default]
colvars:   # gridsUpdateFrequency = 500 [default]
colvars:   # rebinGrids = off [default]
colvars:   # writeFreeEnergyFile = on [default]
colvars:   # keepHills = off [default]
colvars:   # keepFreeEnergyFiles = off [default]
colvars:   # writeHillsTrajectory = off [default]
colvars:   # wellTempered = off [default]
colvars:   # biasTemperature = 800
colvars:   # ebMeta = off [default]
colvars: ----------------------------------------------------------------------
colvars: Collective variables biases initialized, 1 in total.
colvars: ----------------------------------------------------------------------
colvars: Collective variables module (re)initialized.
colvars: ----------------------------------------------------------------------
colvars: Re-initialized atom group for variable "d":0/0. 1 atoms: total mass = 1.008, total charge = 5.83367e-310.
colvars: Re-initialized atom group for variable "d":0/1. 1 atoms: total mass = 1.008, total charge = 0.
colvars: The restart output state file will be "rest.colvars.state".
colvars: The final output state file will be "out.colvars.state".
Per MPI rank memory allocation (min/avg/max) = 3.124 | 3.146 | 3.16 Mbytes
   Step          Temp         c_mTemp         PotEng         KinEng         TotEng         Press     
         0   149.9571       298.15        -2247.8234      6.5516151     -2241.2718     -14783.352    
        50   130.59388      259.65136     -2246.9748      5.7056372     -2241.2691     -14750.29     
       100   136.00624      270.4124      -2247.2119      5.9421028     -2241.2698     -12293.107    
       150   139.24855      276.85889     -2247.3517      6.0837594     -2241.2679     -12463.858    
       200   139.16439      276.69154     -2247.3434      6.0800821     -2241.2633     -11075.272    
       250   143.05921      284.43537     -2247.5105      6.2502468     -2241.2602     -15547.657    
       300   149.27765      296.79909     -2247.7879      6.5219298     -2241.2659     -11860.766    
       350   142.11711      282.56225     -2247.4722      6.2090865     -2241.2631     -13287.112    
       400   129.52687      257.52989     -2246.9093      5.6590198     -2241.2503     -13085.54     
       450   142.19171      282.71058     -2247.4635      6.2123457     -2241.2512     -12825.463    
       500   144.61573      287.5301      -2247.5683      6.3182509     -2241.25       -11131.133    
       550   134.05437      266.53163     -2246.9736      5.8568259     -2241.1168     -13853.601    
       600   141.10236      280.54469     -2247.2413      6.1647521     -2241.0765     -15870.631    
       650   147.26652      292.80049     -2247.4244      6.4340636     -2240.9903     -14057.632    
       700   140.32321      278.99556     -2247.0439      6.130711      -2240.9132     -11776.719    
       750   143.18063      284.67677     -2247.1075      6.2555514     -2240.8519     -13394.808    
       800   160.65292      319.41581     -2247.7379      7.0189147     -2240.719      -15100.155    
       850   162.92479      323.93282     -2247.8293      7.1181725     -2240.7111     -12429.917    
       900   136.97729      272.34308     -2246.6657      5.9845281     -2240.6811     -13787.51     
       950   151.78626      301.78679     -2247.3112      6.6315307     -2240.6797     -13515.228    
      1000   146.8398       291.95207     -2247.0924      6.4154203     -2240.6769     -12061.151    
      1050   147.20087      292.66996     -2246.9681      6.4311954     -2240.5369     -13737.06     
      1100   146.26242      290.8041      -2246.9719      6.3901947     -2240.5818     -14782.534    
      1150   148.8115       295.87228     -2246.8832      6.501564      -2240.3816     -13184.197    
      1200   146.21682      290.71345     -2246.7107      6.3882026     -2240.3225     -11564.532    
      1250   164.56663      327.19718     -2247.5128      7.1899043     -2240.3229     -14842.98     
      1300   180.17622      358.23272     -2247.3981      7.8718862     -2239.5263     -10338.002    
      1350   159.68956      317.50042     -2246.4912      6.9768255     -2239.5144     -10724.392    
      1400   144.22313      286.74952     -2245.1863      6.3010984     -2238.8852     -11369.493    
      1450   177.07502      352.06681     -2246.6248      7.7363951     -2238.8884     -13259.432    
      1500   175.82499      349.58145     -2246.5695      7.6817813     -2238.8878     -13625.142    
      1550   159.4743       317.07242     -2245.8506      6.9674206     -2238.8832     -11658.695    
      1600   171.60244      341.18604     -2246.3758      7.4972986     -2238.8785     -8812.519     
      1650   161.30319      320.7087      -2245.447       7.047325      -2238.3996     -14564.937    
      1700   152.84636      303.89452     -2245.0526      6.6778465     -2238.3747     -15471.215    
      1750   171.72925      341.43816     -2245.3648      7.5028388     -2237.8619     -11811.801    
      1800   195.13778      387.97982     -2246.3971      8.5255558     -2237.8715     -11770.186    
      1850   177.57616      353.06319     -2245.6232      7.7582898     -2237.8649     -14330.125    
      1900   178.61233      355.12334     -2245.6844      7.80356       -2237.8808     -13085.539    
      1950   185.42944      368.67737     -2245.9951      8.1013993     -2237.8937     -14179.091    
      2000   174.83907      347.62122     -2245.5362      7.6387067     -2237.8975     -12369.784    
      2050   180.19594      358.27193     -2245.7812      7.8727478     -2237.9084     -12456.415    
      2100   178.79823      355.49294     -2245.7268      7.8116818     -2237.9151     -14878.48     
      2150   176.45687      350.83778     -2245.644       7.7093882     -2237.9347     -11216.204    
      2200   163.94065      325.95259     -2245.1054      7.1625555     -2237.9428     -15627.983    
      2250   165.28368      328.62284     -2245.1796      7.2212321     -2237.9584     -12019.984    
      2300   163.91165      325.89493     -2245.1416      7.1612883     -2237.9804     -15491.424    
      2350   176.66696      351.25549     -2245.7277      7.718567      -2238.0091     -11153.309    
      2400   188.64472      375.0701      -2246.2777      8.2418745     -2238.0358     -14032.153    
      2450   179.92355      357.73035     -2245.9169      7.8608471     -2238.056      -12705.945    
      2500   184.21583      366.26441     -2246.1351      8.0483764     -2238.0867     -12643.486    
      2550   185.31371      368.44726     -2246.2189      8.0963429     -2238.1225     -14574.583    
      2600   186.91503      371.63106     -2246.3281      8.1663043     -2238.1618     -12378.707    
      2650   172.75608      343.47974     -2245.7439      7.547701      -2238.1962     -14156.128    
      2700   166.88959      331.81578     -2245.5315      7.2913945     -2238.2401     -15184.759    
      2750   155.91212      309.98998     -2245.0882      6.8117895     -2238.2764     -12584.608    
      2800   176.88147      351.68199     -2246.0553      7.7279391     -2238.3273     -15531.209    
      2850   164.79497      327.65117     -2245.5726      7.1998804     -2238.3727     -15106.241    
      2900   165.52812      329.10885     -2245.6535      7.2319117     -2238.4216     -13120.08     
      2950   167.19766      332.42829     -2245.7747      7.304854      -2238.4699     -14146.852    
      3000   174.97476      347.89099     -2246.163       7.6446347     -2238.5184     -15539.05     
      3050   183.51247      364.86597     -2246.5879      8.0176469     -2238.5703     -15227.059    
      3100   167.75542      333.53725     -2245.9521      7.3292225     -2238.6228     -13851.513    
      3150   168.85225      335.718       -2246.0545      7.3771428     -2238.6773     -12216.666    
      3200   159.20428      316.53556     -2245.6838      6.9556236     -2238.7281     -13073.699    
      3250   151.75385      301.72237     -2245.3944      6.630115      -2238.7643     -13008.303    
      3300   166.18195      330.40882     -2246.0748      7.2604776     -2238.8144     -11800.71     
      3350   161.07085      320.24674     -2245.8997      7.0371738     -2238.8625     -12579.538    
      3400   174.93669      347.8153      -2246.5563      7.6429715     -2238.9134     -12166.652    
      3450   179.44807      356.78499     -2246.8018      7.8400735     -2238.9617     -12966.977    
      3500   169.78626      337.57503     -2246.4274      7.4179494     -2239.0095     -10751.328    
      3550   168.02269      334.06865     -2246.3926      7.3408995     -2239.0517     -11935.44     
      3600   172.12235      342.21973     -2246.6092      7.5200133     -2239.0892     -15227.962    
      3650   187.95454      373.69784     -2247.3464      8.2117204     -2239.1347     -11995.936    
      3700   177.85262      353.61285     -2246.9385      7.7703682     -2239.1681     -13548.045    
      3750   161.5193       321.13838     -2246.2582      7.0567668     -2239.2014     -14260.868    
      3800   157.67107      313.48719     -2246.126       6.8886379     -2239.2374     -13752.691    
      3850   159.97137      318.06073     -2246.2666      6.9891379     -2239.2775     -14738.055    
      3900   158.60426      315.34259     -2246.1529      6.9294089     -2239.2235     -11144.511    
      3950   163.51374      325.10378     -2246.3971      7.1439035     -2239.2532     -12523.48     
      4000   155.82478      309.81633     -2246.0821      6.8079737     -2239.2741     -12402.427    
      4050   198.84061      395.34191     -2244.9972      8.687332      -2236.3099     -11512.955    
      4100   177.05351      352.02403     -2244.0734      7.7354551     -2236.338      -7879.6263    
      4150   163.73198      325.53769     -2243.5204      7.1534384     -2236.3669     -12458.836    
      4200   178.8127       355.52173     -2244.2095      7.8123143     -2236.3972     -10072.797    
      4250   172.5805       343.13063     -2243.9732      7.5400296     -2236.4331     -12043.44     
      4300   163.36044      324.79899     -2243.5932      7.1372061     -2236.456      -10228.975    
      4350   156.39803      310.95609     -2243.323       6.8330189     -2236.49       -8054.5671    
      4400   170.17703      338.35197     -2243.942       7.4350223     -2236.507      -9964.9913    
      4450   170.43675      338.86836     -2243.9797      7.4463695     -2236.5334     -8552.4579    
      4500   171.90157      341.78077     -2244.0665      7.5103675     -2236.5562     -12117.255    
      4550   169.55171      337.10869     -2243.9912      7.4077021     -2236.5835     -10820.692    
      4600   159.01673      316.16267     -2243.5601      6.9474296     -2236.6127     -11069.871    
      4650   168.66154      335.33883     -2244.0089      7.3688109     -2236.6401     -13374.429    
      4700   183.40819      364.65863     -2244.6837      8.0130906     -2236.6706     -8412.1811    
      4750   200.23956      398.12337     -2244.8292      8.7484523     -2236.0807     -14207.756    
      4800   247.60207      492.29118     -2245.7118      10.817717     -2234.8941     -12382.725    
      4850   195.08167      387.86826     -2243.4502      8.5231044     -2234.927      -13464.7      
      4900   218.41673      434.26385     -2244.5063      9.5426113     -2234.9637     -12026.052    
      4950   215.6546       428.77208     -2244.4394      9.421934      -2235.0175     -11945.134    
      5000   193.06515      383.85894     -2243.4974      8.4350026     -2235.0624     -13370.161    
      5050   201.70479      401.03657     -2243.926       8.8124678     -2235.1135     -11857.353    
      5100   193.37877      384.48249     -2243.6214      8.4487045     -2235.1727     -11442.104    
      5150   203.66993      404.94375     -2244.1326      8.8983248     -2235.2343     -9873.545     
      5200   181.7373       361.33652     -2243.2126      7.9400899     -2235.2725     -13253.57     
      5250   191.11816      379.98787     -2243.6824      8.3499388     -2235.3325     -9154.8972    
      5300   192.76622      383.2646      -2243.8169      8.4219425     -2235.3949     -11169.554    
      5350   181.48272      360.83035     -2243.3695      7.9289672     -2235.4405     -10444.583    
      5400   182.73469      363.31956     -2243.4692      7.9836656     -2235.4856     -15717.387    
      5450   198.31962      394.30606     -2244.2126      8.6645699     -2235.548      -11354.394    
      5500   187.01732      371.83443     -2243.7648      8.1707734     -2235.594      -14883.553    
      5550   181.88239      361.62499     -2243.603       7.9464289     -2235.6566     -12756.491    
      5600   182.00213      361.86306     -2243.661       7.9516602     -2235.7093     -11692.325    
      5650   180.01834      357.91881     -2243.6272      7.8649883     -2235.7622     -14522.391    
      5700   182.19602      362.24857     -2243.7805      7.9601314     -2235.8204     -12268.799    
      5750   188.38606      374.55581     -2244.1103      8.2305736     -2235.8797     -11796.355    
      5800   167.45228      332.93453     -2243.2343      7.3159781     -2235.9183     -13961.935    
      5850   182.85509      363.55894     -2243.9712      7.9889258     -2235.9823     -10496.37     
      5900   178.01969      353.94503     -2243.8038      7.7776677     -2236.0261     -12798.648    
      5950   190.09264      377.94889     -2244.3928      8.3051339     -2236.0876     -11608.501    
      6000   173.06935      344.1026      -2243.6973      7.5613878     -2236.1359     -16563.833    
      6050   188.60785      374.99679     -2244.4362      8.2402636     -2236.1959     -11092.272    
      6100   166.14897      330.34324     -2243.4908      7.2590366     -2236.2318     -15880.476    
      6150   185.90925      369.63133     -2244.4109      8.1223619     -2236.2885     -10979.883    
      6200   176.11996      350.16793     -2244.0278      7.6946688     -2236.3332     -10882.304    
      6250   189.44928      376.66975     -2244.656       8.2770257     -2236.3789     -15955.897    
      6300   200.4089       398.46004     -2245.1857      8.7558504     -2236.4298     -13240.788    
      6350   174.27117      346.4921      -2244.0923      7.6138952     -2236.4784     -11462.656    
      6400   187.84701      373.48406     -2244.728       8.2070227     -2236.521      -13433.495    
      6450   184.90094      367.62658     -2244.6608      8.078309      -2236.5825     -13342.52     
      6500   187.16654      372.13113     -2244.8219      8.1772931     -2236.6446     -13242.675    
      6550   180.68702      359.24831     -2244.5903      7.894203      -2236.696      -15177.426    
      6600   189.99273      377.75026     -2245.0533      8.300769      -2236.7525     -11004.435    
      6650   171.83146      341.64138     -2244.309       7.5073045     -2236.8017     -16443.454    
      6700   181.66368      361.19014     -2244.7894      7.9368733     -2236.8526     -9539.2043    
      6750   178.90136      355.698       -2244.7162      7.8161878     -2236.9        -11591.082    
      6800   181.18627      360.24094     -2244.8712      7.9160154     -2236.9552     -17342.224    
      6850   185.08975      368.00198     -2245.0972      8.0865581     -2237.0107     -12875.792    
      6900   172.75332      343.47425     -2244.6148      7.5475802     -2237.0672     -12712.556    
      6950   188.36988      374.52364     -2245.3418      8.2298667     -2237.1119     -14730.216    
      7000   192.15524      382.04984     -2245.5585      8.3952489     -2237.1632     -14239.205    
      7050   191.01367      379.78013     -2245.5633      8.3453738     -2237.2179     -13482.361    
      7100   180.5917       359.05879     -2245.1559      7.8900385     -2237.2658     -13147.336    
      7150   174.31512      346.57947     -2244.9275      7.6158151     -2237.3117     -13193.089    
      7200   198.87081      395.40197     -2246.0643      8.6886516     -2237.3757     -11557.062    
      7250   172.82841      343.62355     -2244.9731      7.5508611     -2237.4222     -14763.81     
      7300   186.02878      369.86899     -2245.6064      8.1275844     -2237.4788     -14350.537    
      7350   168.39497      334.80883     -2244.8757      7.3571643     -2237.5185     -12080.107    
      7400   162.97734      324.0373      -2244.6895      7.1204685     -2237.569      -10949.561    
      7450   193.54004      384.80314     -2246.0763      8.4557506     -2237.6205     -12884.337    
      7500   183.01597      363.87882     -2245.6705      7.9959549     -2237.6746     -14109.295    
      7550   175.19084      348.32061     -2245.3837      7.6540752     -2237.7296     -12493.192    
      7600   174.62478      347.19516     -2245.4121      7.6293444     -2237.7828     -12234.235    
      7650   158.40741      314.9512      -2244.7529      6.9208084     -2237.8321     -12421.552    
      7700   175.108        348.1559      -2245.5284      7.650456      -2237.8779     -13092.049    
      7750   166.0826       330.2113      -2245.1841      7.2561372     -2237.9279     -12413.568    
      7800   176.98674      351.89128     -2245.704       7.7325381     -2237.9715     -14366.426    
      7850   171.39323      340.77007     -2245.5072      7.4881581     -2238.019      -14935.034    
      7900   173.06989      344.10367     -2245.6268      7.5614113     -2238.0653     -12217.973    
      7950   170.88099      339.75161     -2245.5788      7.4657781     -2238.113      -14778.776    
      8000   167.99742      334.0184      -2245.5057      7.3397955     -2238.1659     -10589.843    
      8050   168.87104      335.75537     -2245.5875      7.377964      -2238.2096     -13306        
      8100   176.88999      351.69893     -2245.9861      7.7283112     -2238.2578     -11151.617    
      8150   165.58234      329.21665     -2245.5384      7.2342805     -2238.3041     -14399.157    
      8200   168.99597      336.00375     -2245.7338      7.3834218     -2238.3504     -12708.467    
      8250   163.13947      324.35966     -2245.5234      7.1275521     -2238.3959     -15176.606    
      8300   177.42062      352.75395     -2246.1998      7.7514945     -2238.4483     -13081.069    
      8350   184.77946      367.38504     -2246.5624      8.0730015     -2238.4894     -11672.555    
      8400   156.69486      311.54626     -2245.3766      6.8459875     -2238.5307     -14582.12     
      8450   171.33935      340.66295     -2246.0584      7.4858042     -2238.5726     -12768.839    
      8500   161.10408      320.31283     -2245.6529      7.038626      -2238.6143     -14578.603    
      8550   163.37452      324.82699     -2245.8056      7.1378214     -2238.6678     -12734.521    
      8600   159.97364      318.06524     -2245.7032      6.9892371     -2238.714      -14314.386    
      8650   161.86085      321.81746     -2245.8277      7.0716892     -2238.756      -11431.455    
      8700   169.08844      336.1876      -2246.1887      7.3874619     -2238.8012     -16672.228    
      8750   171.17914      340.3444      -2246.3238      7.4788044     -2238.845      -12015.464    
      8800   161.93584      321.96656     -2245.9634      7.0749656     -2238.8884     -11469.312    
      8850   170.98592      339.96024     -2246.4004      7.4703626     -2238.9301     -13165.473    
      8900   147.36043      292.98721     -2245.4039      6.4381667     -2238.9658     -13162.841    
      8950   155.06753      308.31075     -2245.7899      6.7748896     -2239.015      -12790.045    
      9000   164.23382      326.53548     -2246.2334      7.1753641     -2239.058      -13226.115    
      9050   148.30409      294.86342     -2245.5695      6.4793951     -2239.0901     -13158.829    
      9100   152.94258      304.08583     -2245.8123      6.6820503     -2239.1303     -13972.571    
      9150   159.04033      316.20959     -2246.1208      6.9484606     -2239.1723     -11279.17     
      9200   156.81155      311.77826     -2246.0509      6.8510854     -2239.1999     -12702.932    
      9250   173.57667      345.11127     -2246.8322      7.5835526     -2239.2486     -16294.922    
      9300   156.92606      312.00594     -2246.1272      6.8560886     -2239.2711     -11158.443    
      9350   159.66734      317.45624     -2246.2872      6.9758547     -2239.3114     -15966.38     
      9400   156.2202       310.60251     -2246.1781      6.8252492     -2239.3529     -14689.316    
      9450   154.52408      307.23022     -2246.1369      6.7511459     -2239.3857     -12621.749    
      9500   156.69069      311.53796     -2246.2661      6.8458052     -2239.4203     -14812.142    
      9550   156.83202      311.81895     -2246.3181      6.8519797     -2239.4661     -11089.182    
      9600   160.98831      320.08264     -2246.5337      7.0335679     -2239.5002     -11011.324    
      9650   150.21312      298.65903     -2246.0982      6.5628006     -2239.5354     -13992.257    
      9700   150.52381      299.27675     -2246.1452      6.5763744     -2239.5688     -9730.2974    
      9750   161.61149      321.32166     -2246.6701      7.0607943     -2239.6093     -17820.612    
      9800   154.79142      307.76177     -2246.4098      6.7628262     -2239.647      -11959.079    
      9850   153.6683       305.52874     -2246.3884      6.7137571     -2239.6746     -13050.374    
      9900   158.52637      315.18773     -2246.6327      6.926006      -2239.7067     -13450.337    
      9950   156.73524      311.62654     -2246.5891      6.8477516     -2239.7413     -12687.707    
     10000   157.02181      312.1963      -2246.6266      6.8602717     -2239.7664     -14562.84     
     10050   155.26617      308.70567     -2246.5873      6.7835678     -2239.8037     -15566.073    
     10100   159.40127      316.92723     -2246.8025      6.9642301     -2239.8383     -13928.535    
     10150   153.59165      305.37634     -2246.5732      6.7104083     -2239.8628     -14825.074    
     10200   151.7845       301.7833      -2246.5294      6.6314541     -2239.898      -16059.748    
     10250   154.48651      307.15553     -2246.586       6.7495047     -2239.8365     -13356.375    
     10300   155.18215      308.53863     -2246.6473      6.7798972     -2239.8674     -13331.814    
     10350   144.97692      288.24824     -2246.2258      6.3340315     -2239.8918     -13610.577    
     10400   140.81215      279.9677      -2246.0756      6.152073      -2239.9235     -12998.686    
     10450   140.20162      278.75382     -2246.0756      6.125399      -2239.9502     -11957.564    
     10500   159.38125      316.88742     -2246.953       6.9633554     -2239.9897     -12322.281    
     10550   136.71587      271.82332     -2245.9809      5.9731067     -2240.0078     -12142.943    
     10600   159.95051      318.01924     -2247.0357      6.9882262     -2240.0475     -11415.6      
     10650   160.68818      319.48592     -2247.0908      7.0204554     -2240.0703     -13608.741    
     10700   144.65633      287.61082     -2246.4199      6.3200249     -2240.0999     -10611.748    
     10750   154.77149      307.72213     -2246.8952      6.7619552     -2240.1333     -10371.086    
     10800   151.96009      302.13241     -2246.7976      6.6391255     -2240.1585     -12524.308    
     10850   149.76952      297.77704     -2246.7237      6.5434196     -2240.1803     -15954.333    
     10900   147.2773       292.82192     -2246.6465      6.4345347     -2240.212      -12785.281    
     10950   155.89879      309.96347     -2247.0502      6.8112069     -2240.239      -15633.342    
     11000   144.94874      288.19219     -2246.5945      6.3328        -2240.2617     -12777.966    
     11050   150.05568      298.346       -2246.8457      6.5559219     -2240.2898     -13133.714    
     11100   143.31726      284.94843     -2246.57        6.2615208     -2240.3084     -15412.675    
     11150   161.58667      321.27232     -2247.3931      7.05971       -2240.3334     -12116.569    
     11200   150.05106      298.33681     -2246.9168      6.5557202     -2240.3611     -15186.009    
     11250   140.90756      280.15739     -2246.5351      6.1562415     -2240.3789     -11389.164    
     11300   150.41333      299.0571      -2246.973       6.5715478     -2240.4015     -13906.758    
     11350   140.22034      278.79103     -2246.5479      6.1262168     -2240.4217     -12943.274    
     11400   150.21908      298.67087     -2247.0096      6.5630608     -2240.4466     -13871.412    
     11450   150.56039      299.34948     -2247.0454      6.5779727     -2240.4674     -13864.904    
     11500   154.44554      307.07407     -2247.2345      6.7477146     -2240.4868     -12137.514    
     11550   144.41338      287.12778     -2246.7761      6.3094102     -2240.4667     -13245.739    
     11600   142.50339      283.33027     -2246.7169      6.2259629     -2240.4909     -11461.605    
     11650   146.66375      291.60204     -2246.9108      6.4077287     -2240.503      -14254.814    
     11700   160.67871      319.46707     -2247.5451      7.0200413     -2240.5251     -10100.975    
     11750   149.1807       296.60634     -2247.0651      6.5176944     -2240.5474     -16525.604    
     11800   153.5409       305.27543     -2247.2741      6.7081909     -2240.5659     -12095.897    
     11850   141.38419      281.10503     -2246.7615      6.177065      -2240.5844     -14894.835    
     11900   147.45617      293.17757     -2247.0417      6.4423498     -2240.5993     -12931.821    
     11950   148.92671      296.10134     -2247.1275      6.5065973     -2240.6209     -11919.262    
     12000   151.88966      301.99237     -2247.2723      6.6360483     -2240.6363     -15815.824    
     12050   137.07428      272.53592     -2246.637       5.9887654     -2240.6482     -12187.33     
     12100   136.71788      271.82732     -2246.6393      5.9731945     -2240.6661     -14946.792    
     12150   152.82361      303.84929     -2247.3617      6.6768525     -2240.6848     -14155.96     
     12200   142.64744      283.61667     -2246.8593      6.2322564     -2240.627      -11329.197    
     12250   147.00947      292.28943     -2247.0756      6.4228335     -2240.6527     -11960.204    
     12300   144.64504      287.58837     -2246.9823      6.3195315     -2240.6628     -14377.288    
     12350   148.2413       294.73858     -2247.121       6.4766518     -2240.6443     -13863.428    
     12400   145.36198      289.01382     -2247.0136      6.3508546     -2240.6628     -12803.72     
     12450   146.11176      290.50456     -2247.0552      6.3836124     -2240.6716     -13689.245    
     12500   150.09428      298.42275     -2247.2484      6.5576086     -2240.6908     -11620.373    
     12550   145.58201      289.45128     -2247.0624      6.3604675     -2240.7019     -14463.297    
     12600   142.29373      282.91342     -2246.9314      6.2168031     -2240.7146     -14604.62     
     12650   153.22663      304.6506      -2247.4317      6.6944607     -2240.7373     -14460.915    
     12700   143.39116      285.09536     -2247.0104      6.2647495     -2240.7457     -14290.593    
     12750   143.77787      285.86423     -2247.0453      6.2816448     -2240.7637     -10289.947    
     12800   138.90227      276.1704      -2246.8446      6.0686304     -2240.776      -14555.128    
     12850   140.74455      279.83328     -2246.9364      6.1491193     -2240.7873     -12064.383    
     12900   147.99227      294.24346     -2247.2702      6.4657719     -2240.8044     -15908.999    
     12950   140.90021      280.14277     -2246.9724      6.1559202     -2240.8165     -11289.341    
     13000   154.77742      307.73393     -2247.5948      6.7622146     -2240.8326     -14841.995    
     13050   151.3858       300.99059     -2247.4569      6.6140349     -2240.8429     -12185.339    
     13100   148.46525      295.18386     -2247.3465      6.4864364     -2240.86       -12983.328    
     13150   158.32667      314.79067     -2247.7881      6.9172809     -2240.8709     -12467.115    
     13200   128.54289      255.57351     -2246.4966      5.6160297     -2240.8806     -14482.634    
     13250   139.11944      276.60218     -2246.972       6.0781184     -2240.8939     -14121.372    
     13300   130.58908      259.64182     -2246.6102      5.7054276     -2240.9048     -13452.706    
     13350   146.55587      291.38755     -2247.3267      6.4030156     -2240.9237     -10975.154    
     13400   147.55379      293.37165     -2247.3799      6.4466146     -2240.9333     -17383.379    
     13450   149.20644      296.65751     -2247.4655      6.5188187     -2240.9467     -14299.811    
     13500   149.80742      297.85239     -2247.5036      6.5450754     -2240.9586     -12820.46     
     13550   142.51661      283.35655     -2247.191       6.2265406     -2240.9645     -11864.62     
     13600   133.28         264.99201     -2246.7961      5.8229939     -2240.9731     -13221.541    
     13650   133.65862      265.74479     -2246.8293      5.8395357     -2240.9898     -15641.377    
     13700   143.04727      284.41162     -2247.2506      6.2497249     -2241.0008     -11709.372    
     13750   135.78393      269.9704      -2246.9424      5.9323903     -2241.01       -14617.008    
     13800   135.68666      269.77702     -2246.949       5.9281407     -2241.0209     -12553.971    
     13850   133.51222      265.4537      -2246.8637      5.8331393     -2241.0306     -15127.329    
     13900   139.36309      277.08661     -2247.1276      6.0887634     -2241.0388     -12667.545    
     13950   137.76688      273.91297     -2247.0718      6.0190252     -2241.0528     -14396.339    
     14000   145.57667      289.44066     -2247.416       6.3602342     -2241.0557     -13145.682    
     14050   149.49104      297.22336     -2247.5981      6.531253      -2241.0669     -10558.11     
     14100   137.83864      274.05565     -2247.0926      6.0221605     -2241.0704     -14485.712    
     14150   129.05408      256.58987     -2246.7184      5.6383635     -2241.08       -13097.015    
     14200   151.07042      300.36354     -2247.6922      6.6002559     -2241.092      -13640.04     
     14250   140.81811      279.97953     -2247.2483      6.1523332     -2241.096      -16347.314    
     14300   147.75242      293.76658     -2247.5581      6.4552928     -2241.1029     -14042.002    
     14350   140.66239      279.66994     -2247.2553      6.14553       -2241.1097     -12782.657    
     14400   143.09191      284.50038     -2247.3672      6.2516753     -2241.1156     -13696.431    
     14450   141.70635      281.74557     -2247.3092      6.1911405     -2241.1181     -14861.269    
     14500   143.55893      285.42893     -2247.3946      6.2720794     -2241.1225     -14299.146    
     14550   142.24577      282.81806     -2247.3449      6.2147075     -2241.1302     -11894.566    
     14600   146.7723       291.81787     -2247.5438      6.4124714     -2241.1314     -13145.039    
     14650   139.90828      278.17058     -2247.2519      6.1125829     -2241.1393     -10667.485    
     14700   142.90716      284.13307     -2247.3806      6.2436039     -2241.137      -16463.837    
     14750   139.46662      277.29246     -2247.2341      6.0932867     -2241.1408     -13575.796    
     14800   150.07282      298.38008     -2247.6991      6.5566708     -2241.1425     -11237.725    
     14850   149.75134      297.74091     -2247.6848      6.5426256     -2241.1421     -15958.065    
     14900   164.12858      326.32624     -2248.3234      7.1707662     -2241.1527     -11542.684    
     14950   150.49735      299.22415     -2247.7271      6.5752187     -2241.1518     -13659.4      
     15000   131.61448      261.68056     -2246.9007      5.7502274     -2241.1505     -11632.617    
     15050   144.49922      287.29844     -2247.4705      6.3131606     -2241.1573     -14583.128    
     15100   154.10797      306.4029      -2247.8926      6.7329662     -2241.1597     -14444.723    
     15150   150.57184      299.37225     -2247.7413      6.5784731     -2241.1628     -12348.39     
     15200   151.21403      300.64908     -2247.7706      6.6065304     -2241.1641     -13351.062    
     15250   134.64665      267.70922     -2247.0394      5.8827025     -2241.1567     -11778.436    
     15300   150.01632      298.26774     -2247.7183      6.5542022     -2241.1641     -13440.503    
     15350   142.0623       282.45328     -2247.3656      6.2066919     -2241.1589     -14790.966    
     15400   139.41392      277.18767     -2247.2475      6.0909841     -2241.1565     -12069.058    
     15450   143.83963      285.98704     -2247.4377      6.2843434     -2241.1534     -12199.57     
     15500   135.1746       268.75891     -2247.0548      5.9057687     -2241.149      -12290.351    
     15550   139.01996      276.40439     -2247.2205      6.0737722     -2241.1467     -11288.632    
     15600   136.69098      271.77383     -2247.1051      5.9720192     -2241.133      -13521.871    
     15650   142.05511      282.43899     -2247.3412      6.2063777     -2241.1348     -10985.079    
     15700   147.65019      293.56331     -2247.5818      6.4508262     -2241.1309     -14304.387    
     15750   140.17994      278.7107      -2247.2496      6.1244516     -2241.1252     -15411.308    
     15800   136.22239      270.84217     -2247.0669      5.9515466     -2241.1154     -12627.776    
     15850   137.46004      273.30291     -2247.1116      6.0056195     -2241.106      -13848.084    
     15900   141.09501      280.53008     -2247.2713      6.1644311     -2241.1069     -11894.987    
     15950   133.56363      265.55592     -2246.927       5.8353854     -2241.0916     -14451.778    
     16000   138.29434      274.9617      -2247.1283      6.0420701     -2241.0862     -13333        
     16050   149.97174      298.17911     -2247.6305      6.5522547     -2241.0782     -13187.223    
     16100   144.26462      286.83202     -2247.3675      6.3029112     -2241.0646     -16511.518    
     16150   142.7994       283.9188      -2247.2927      6.2388955     -2241.0538     -10763.529    
     16200   148.15514      294.56728     -2247.5246      6.4728876     -2241.0517     -12576.627    
     16250   141.46748      281.27063     -2247.2097      6.1807041     -2241.029      -13632.546    
     16300   140.18156      278.71392     -2247.1454      6.1245222     -2241.0209     -15631.753    
     16350   141.37866      281.09404     -2247.1895      6.1768235     -2241.0127     -10991.985    
     16400   143.48568      285.28329     -2247.273       6.2688792     -2241.0042     -13132.456    
     16450   155.31802      308.80877     -2247.779       6.7858333     -2240.9931     -11161.315    
     16500   142.53083      283.38482     -2247.2029      6.2271618     -2240.9757     -14967.985    
     16550   139.93142      278.21659     -2247.0755      6.1135938     -2240.9619     -14165.112    
     16600   135.19065      268.79083     -2246.8592      5.9064701     -2240.9527     -14610.079    
     16650   133.6235       265.67496     -2246.7823      5.8380012     -2240.9443     -12767.16     
     16700   155.66944      309.50747     -2247.734       6.8011867     -2240.9329     -13201.193    
     16750   155.46767      309.10632     -2247.7065      6.7923717     -2240.9141     -13220.836    
     16800   154.95944      308.09582     -2247.6756      6.7701667     -2240.9055     -12488.504    
     16850   153.5479       305.28935     -2247.5956      6.7084968     -2240.8871     -13311.352    
     16900   142.34281      283.011       -2247.0927      6.2189474     -2240.8738     -11549.864    
     16950   151.29256      300.80521     -2247.4617      6.6099612     -2240.8517     -11636.943    
     17000   138.94862      276.26256     -2246.9018      6.0706555     -2240.8311     -14378.808    
     17050   151.91355      302.03988     -2247.4603      6.6370922     -2240.8232     -12196.245    
     17100   144.8489       287.9937      -2247.1313      6.3284383     -2240.8028     -12315.404    
     17150   142.59376      283.50996     -2247.0211      6.2299115     -2240.7912     -12170.678    
     17200   150.19821      298.62939     -2247.3422      6.5621493     -2240.78       -11729.53     
     17250   148.3389       294.93264     -2247.2461      6.4809162     -2240.7652     -14059.324    
     17300   140.74139      279.827       -2246.8984      6.1489813     -2240.7495     -13871.119    
     17350   141.81593      281.96344     -2246.9265      6.1959281     -2240.7306     -14908.986    
     17400   148.26565      294.78699     -2247.2045      6.4777156     -2240.7268     -14660.209    
     17450   151.96582      302.14381     -2247.3496      6.6393758     -2240.7102     -13782.223    
     17500   145.86375      290.01145     -2247.0573      6.3727767     -2240.6845     -12140.349    
     17550   158.19134      314.52161     -2247.588       6.9113685     -2240.6766     -12194.11     
     17600   153.74829      305.68777     -2247.3757      6.7172518     -2240.6584     -14063.535    
     17650   152.36299      302.93347     -2247.3002      6.6567281     -2240.6434     -12041.174    
     17700   146.46596      291.20879     -2247.0265      6.3990874     -2240.6274     -16262.562    
     17750   155.90433      309.97449     -2247.4325      6.8114491     -2240.6211     -14293.517    
     17800   134.25447      266.92947     -2246.4609      5.8655681     -2240.5954     -14312.662    
     17850   142.80729      283.93449     -2246.8281      6.2392402     -2240.5888     -14208.92     
     17900   152.73861      303.68029     -2247.2457      6.673139      -2240.5726     -13840.667    
     17950   151.74733      301.70939     -2247.1832      6.6298299     -2240.5534     -14587.112    
     18000   158.94481      316.01967     -2247.4871      6.9442873     -2240.5428     -12249.854    
     18050   142.17771      282.68274     -2246.7383      6.211734      -2240.5265     -12137.322    
     18100   149.76615      297.77035     -2247.0529      6.5432725     -2240.5096     -13678.973    
     18150   155.18026      308.53487     -2247.2796      6.7798145     -2240.4998     -12008.038    
     18200   153.72335      305.63819     -2247.2035      6.7161623     -2240.4873     -13375.828    
     18250   150.51483      299.25889     -2247.0449      6.575982      -2240.4689     -14085.498    
     18300   144.48314      287.26649     -2246.7666      6.3124583     -2240.4542     -15316.356    
     18350   155.2124       308.59878     -2247.2228      6.7812188     -2240.4416     -14438.1      
     18400   141.38262      281.10192     -2246.596       6.1769967     -2240.419      -16405.22     
     18450   158.29649      314.73067     -2247.331       6.9159625     -2240.415      -12562.966    
     18500   147.98921      294.23738     -2246.862       6.4656382     -2240.3964     -16184.15     
     18550   150.94951      300.12315     -2246.9833      6.5949735     -2240.3883     -13069.703    
     18600   155.7982       309.76347     -2247.1859      6.8068121     -2240.3791     -14539.671    
     18650   154.86968      307.91736     -2247.1245      6.7662452     -2240.3582     -15157.267    
     18700   154.46771      307.11814     -2247.0908      6.7486831     -2240.3421     -12885.313    
     18750   155.90483      309.97548     -2247.136       6.8114708     -2240.3245     -15974.337    
     18800   143.93311      286.17289     -2246.5964      6.2884275     -2240.308      -15142.275    
     18850   160.66128      319.43244     -2247.3218      7.0192801     -2240.3025     -13149.044    
     18900   155.68401      309.53645     -2247.085       6.8018235     -2240.2831     -12031.139    
     18950   164.13132      326.33168     -2247.4362      7.1708857     -2240.2653     -12090.002    
     19000   158.84876      315.8287      -2247.1947      6.9400909     -2240.2546     -11964.475    
     19050   153.95228      306.09335     -2246.9611      6.7261641     -2240.2349     -13984.677    
     19100   134.08528      266.59309     -2246.0721      5.8581766     -2240.2139     -15601.232    
     19150   151.90095      302.01482     -2246.8484      6.6365416     -2240.2119     -12301.752    
     19200   152.47142      303.14906     -2246.8558      6.6614655     -2240.1943     -12420.284    
     19250   166.36625      330.77525     -2247.4464      7.2685297     -2240.1778     -10135.027    
     19300   159.69171      317.50469     -2247.1475      6.9769194     -2240.1706     -11024.127    
     19350   152.2172       302.64362     -2246.8067      6.6503588     -2240.1563     -12929.68     
     19400   156.66221      311.48134     -2246.9916      6.8445609     -2240.147      -11713.834    
     19450   145.06029      288.41399     -2246.4722      6.3376738     -2240.1346     -11365.889    
     19500   150.15311      298.53972     -2246.6864      6.5601788     -2240.1262     -12274.603    
     19550   136.7233       271.83808     -2246.0804      5.9734311     -2240.107      -14460.741    
     19600   160.08319      318.28305     -2247.0971      6.9940233     -2240.1031     -12200.025    
     19650   163.20266      324.48528     -2247.2237      7.1303124     -2240.0934     -9807.3318    
     19700   162.4634       323.01546     -2247.1747      7.0980142     -2240.0767     -14804.38     
     19750   155.26358      308.70053     -2246.8574      6.7834547     -2240.0739     -12056.104    
     19800   151.9204       302.05349     -2246.6963      6.6373913     -2240.0589     -11346.063    
     19850   151.99588      302.20358     -2246.6978      6.6406893     -2240.0571     -13385.46     
     19900   150.55955      299.34782     -2246.6182      6.5779363     -2240.0403     -9914.023     
     19950   147.64658      293.55614     -2246.4838      6.4506685     -2240.0331     -11921.136    
     20000   158.32644      314.79022     -2246.9336      6.917271      -2240.0163     -13632.73     
     20050   158.04005      314.22081     -2246.9145      6.9047586     -2240.0098     -13749.931    
     20100   163.69908      325.47228     -2247.1448      7.152001      -2239.9928     -12516.766    
     20150   164.89036      327.84083     -2247.2006      7.2040481     -2239.9966     -9712.8848    
     20200   160.28656      318.6874      -2246.9795      7.0029085     -2239.9765     -15041.311    
     20250   163.83747      325.74745     -2247.1351      7.1580476     -2239.977      -14461.595    
     20300   154.74662      307.67269     -2246.7372      6.7608689     -2239.9763     -11035.983    
     20350   160.01906      318.15554     -2246.9592      6.9912212     -2239.968      -13037.103    
     20400   149.43499      297.11193     -2246.4874      6.5288042     -2239.9586     -10835.28     
     20450   152.32789      302.86368     -2246.6146      6.6551946     -2239.9594     -13303.138    
     20500   157.44809      313.04385     -2246.8284      6.8788959     -2239.9495     -13458.121    
     20550   146.08968      290.46066     -2246.3258      6.3826479     -2239.9431     -16330.254    
     20600   164.43535      326.93617     -2247.134       7.1841688     -2239.9498     -16788.298    
     20650   149.68239      297.60381     -2246.4779      6.5396129     -2239.9383     -14512.605    
     20700   155.67678      309.52207     -2246.7378      6.8015076     -2239.9363     -13914.742    
     20750   174.00288      345.95866     -2247.5473      7.6021733     -2239.9451     -14356.361    
     20800   149.21972      296.68391     -2246.4468      6.5193989     -2239.9274     -15077.394    
     20850   157.68312      313.51115     -2246.8189      6.8891644     -2239.9298     -13952.288    
     20900   161.7216       321.5406      -2246.9828      7.0656054     -2239.9172     -11573.328    
     20950   144.44026      287.18121     -2246.2166      6.3105845     -2239.906      -14939.405    
     21000   160.0678       318.25244     -2246.9055      6.9933506     -2239.9122     -14872.664    
     21050   157.48575      313.11872     -2246.7915      6.8805411     -2239.911      -12493.106    
     21100   155.6241       309.41733     -2246.7076      6.799206      -2239.9083     -14683.957    
     21150   146.00209      290.2865      -2246.2861      6.3788209     -2239.9073     -13787.492    
     21200   164.51598      327.09648     -2247.091       7.1876916     -2239.9033     -15265.483    
     21250   163.57218      325.21997     -2247.0583      7.1464568     -2239.9118     -14147.531    
     21300   160.51306      319.13772     -2246.9328      7.012804      -2239.92       -14575.023    
     21350   150.68799      299.60319     -2246.5034      6.5835477     -2239.9198     -14711.479    
     21400   157.67666      313.49831     -2246.8124      6.8888823     -2239.9235     -13198.195    
     21450   154.49406      307.17055     -2246.6836      6.7498346     -2239.9337     -14082.396    
     21500   149.17805      296.60106     -2246.4528      6.5175784     -2239.9352     -13258.394    
     21550   159.71966      317.56027     -2246.9148      6.9781408     -2239.9366     -15677.361    
     21600   150.39051      299.01173     -2246.5145      6.5705509     -2239.9439     -11940.701    
     21650   157.03585      312.22422     -2246.8114      6.8608852     -2239.9505     -14880.755    
     21700   156.53295      311.22434     -2246.7923      6.8389135     -2239.9534     -13020.12     
     21750   144.34893      286.99965     -2246.2572      6.3065947     -2239.9506     -15925.144    
     21800   143.41415      285.14108     -2246.2261      6.2657542     -2239.9603     -15011.504    
     21850   145.81889      289.92227     -2246.3381      6.370817      -2239.9673     -12602.626    
     21900   160.18524      318.48595     -2246.9681      6.9984819     -2239.9696     -11083.96     
     21950   154.93626      308.04973     -2246.7447      6.7691541     -2239.9756     -11461.077    
     22000   159.93995      317.99826     -2246.9709      6.9877651     -2239.9831     -15003.911    
     22050   142.73142      283.78364     -2246.2246      6.2359254     -2239.9886     -11791.923    
     22100   163.78201      325.63718     -2247.1569      7.1556245     -2240.0013     -13668.066    
     22150   154.25206      306.6894      -2246.7477      6.7392617     -2240.0084     -13371.89     
     22200   160.24418      318.60314     -2247.0201      7.0010569     -2240.0191     -13560.179    
     22250   162.22414      322.53977     -2247.1151      7.0875613     -2240.0276     -13992.61     
     22300   138.51719      275.40477     -2246.0864      6.0518062     -2240.0346     -14820.607    
     22350   148.96806      296.18355     -2246.5588      6.5084038     -2240.0504     -14332.811    
     22400   160.85821      319.82397     -2247.0866      7.0278838     -2240.0587     -10654.73     
     22450   155.53424      309.23866     -2246.8587      6.7952798     -2240.0635     -12497.253    
     22500   154.25574      306.69672     -2246.8208      6.7394225     -2240.0813     -13280.192    
     22550   156.4013       310.96259     -2246.9328      6.8331618     -2240.0996     -13455.713    
     22600   143.20073      284.71674     -2246.3648      6.2564296     -2240.1084     -14028.146    
     22650   158.03463      314.21004     -2247.0341      6.904522      -2240.1295     -14088.89     
     22700   152.17332      302.55636     -2246.787       6.6484414     -2240.1385     -13973.4      
     22750   146.24848      290.7764      -2246.5449      6.3895859     -2240.1553     -14597.689    
     22800   162.67859      323.44332     -2247.2748      7.1074162     -2240.1674     -11633.855    
     22850   168.99486      336.00155     -2247.5803      7.3833735     -2240.1969     -12602.571    
     22900   157.37192      312.8924      -2247.0875      6.8755679     -2240.212      -13996.512    
     22950   162.28307      322.65693     -2247.3244      7.0901359     -2240.2343     -14162.726    
     23000   141.51628      281.36765     -2246.4394      6.182836      -2240.2565     -13137.159    
     23050   146.72085      291.71558     -2246.6828      6.4102237     -2240.2725     -12108.535    
     23100   146.77488      291.82299     -2246.7027      6.4125839     -2240.2901     -14290.15     
     23150   162.44482      322.97853     -2247.4079      7.0972027     -2240.3107     -12113.075    
     23200   155.8712       309.90862     -2247.1354      6.8100017     -2240.3254     -14140.854    
     23250   163.34229      324.7629      -2247.4887      7.1364129     -2240.3523     -12649.63     
     23300   150.73517      299.69699     -2246.9479      6.5856091     -2240.3623     -12649.653    
     23350   137.4591       273.30103     -2246.3892      6.0055783     -2240.3836     -13896.43     
     23400   146.51085      291.29805     -2246.8079      6.4010487     -2240.4069     -15187.021    
     23450   137.05225      272.49213     -2246.3451      5.9878032     -2240.3573     -15820.588    
     23500   144.30341      286.90914     -2246.6821      6.3046059     -2240.3775     -12990.166    
     23550   150.94961      300.12335     -2246.9935      6.5949779     -2240.3985     -13829.828    
     23600   144.06972      286.4445      -2246.7134      6.2943959     -2240.419      -12082.565    
     23650   142.39201      283.10881     -2246.6526      6.2210967     -2240.4315     -12712.226    
     23700   156.05776      310.27954     -2247.272       6.8181523     -2240.4539     -14593.174    
     23750   157.5624       313.27112     -2247.2858      6.8838899     -2240.4019     -14764.58     
     23800   141.78228      281.89654     -2246.6109      6.1944579     -2240.4164     -13764.341    
     23850   153.62715      305.44693     -2247.1513      6.7119594     -2240.4393     -13748.261    
     23900   148.12785      294.51302     -2246.9356      6.4716954     -2240.4639     -13277.214    
     23950   155.75282      309.67325     -2247.2954      6.8048296     -2240.4906     -12679.093    
     24000   142.12242      282.57282     -2246.713       6.2093186     -2240.5037     -12454.527    
     24050   153.76811      305.72719     -2247.2487      6.718118      -2240.5306     -11795.701    
     24100   145.11824      288.5292      -2246.8881      6.3402055     -2240.5479     -14613.857    
     24150   145.00926      288.31253     -2246.9074      6.3354442     -2240.5719     -10558.112    
     24200   153.99057      306.16948     -2247.3165      6.727837      -2240.5886     -15498.383    
     24250   151.75234      301.71935     -2247.246       6.6300488     -2240.616      -12025.08     
     24300   152.16694      302.54368     -2247.324       6.6481628     -2240.6758     -12537.273    
     24350   146.73551      291.74473     -2247.0555      6.4108642     -2240.6446     -12938.392    
     24400   154.38942      306.9625      -2247.413       6.7452629     -2240.6678     -13222.573    
     24450   155.40243      308.9766      -2247.2762      6.7895213     -2240.4867     -10988.428    
     24500   159.45115      317.02639     -2247.472       6.9664092     -2240.5056     -13460.038    
     24550   160.45829      319.02884     -2247.5419      7.0104114     -2240.5315     -10676.964    
     24600   157.02731      312.20723     -2247.4142      6.8605118     -2240.5537     -13456.071    
     24650   152.47081      303.14785     -2247.2387      6.661439      -2240.5773     -12990.851    
     24700   150.52078      299.27073     -2247.0961      6.5762422     -2240.5198     -14098.744    
     24750   150.82193      299.86948     -2247.1283      6.5893994     -2240.5389     -13120.735    
     24800   155.74544      309.65858     -2247.3726      6.8045072     -2240.5681     -13187.505    
     24850   150.65167      299.53096     -2247.1707      6.5819605     -2240.5887     -11813.151    
     24900   153.16861      304.53523     -2247.3063      6.6919255     -2240.6144     -12707.851    
     24950   149.10204      296.44994     -2246.9628      6.5142576     -2240.4486     -13834.569    
     25000   149.24982      296.74377     -2246.9745      6.5207142     -2240.4537     -11988.296    
     25050   155.43882      309.04894     -2247.2703      6.7911109     -2240.4792     -15930.84     
     25100   159.14509      316.41789     -2247.4561      6.9530378     -2240.503      -12605.653    
     25150   141.82935      281.99012     -2246.7226      6.1965141     -2240.5261     -12586.61     
     25200   153.11713      304.43289     -2247.0136      6.6896767     -2240.3239     -12083.312    
     25250   139.23904      276.83998     -2246.4269      6.083344      -2240.3436     -15564.528    
     25300   151.57327      301.36332     -2246.9978      6.6222254     -2240.3756     -15203.746    
     25350   146.6461       291.56694     -2246.807       6.4069575     -2240.4        -13025.34     
     25400   154.03118      306.25022     -2247.1498      6.7296112     -2240.4202     -15297.781    
     25450   161.5218       321.14335     -2247.5023      7.0568761     -2240.4455     -11705.825    
     25500   162.82369      323.73181     -2247.5839      7.1137555     -2240.4701     -12613.825    
     25550   158.74976      315.63188     -2247.4255      6.9357658     -2240.4898     -17793.421    
     25600   139.55782      277.47379     -2246.6281      6.0972713     -2240.5308     -11987.909    
     25650   150.55098      299.33076     -2247.1336      6.5775614     -2240.556      -13142.517    
     25700   151.10965      300.44153     -2247.1761      6.6019698     -2240.5741     -14958.946    
     25750   147.21351      292.6951      -2247.0563      6.4317479     -2240.6245     -13960.724    
     25800   149.89852      298.03354     -2247.1105      6.5490559     -2240.5614     -14515.069    
     25850   149.07415      296.39449     -2246.9923      6.5130391     -2240.4793     -14558.738    
     25900   151.23957      300.69984     -2247.1695      6.6076459     -2240.5619     -12663.762    
     25950   162.94577      323.97453     -2247.7084      7.119089      -2240.5893     -12660.277    
     26000   167.49775      333.02494     -2247.4936      7.317965      -2240.1757     -12608.239    
     26050   177.78868      353.48572     -2245.7381      7.7675746     -2237.9705     -14297.251    
     26100   185.67845      369.17245     -2246.1204      8.1122783     -2238.0081     -12559.7      
     26150   173.58629      345.13038     -2243.4786      7.5839726     -2235.8946     -10922.843    
     26200   230.6271       458.54094     -2245.4257      10.076082     -2235.3497     -9017.7756    
     26250   216.13095      429.71918     -2244.77        9.4427458     -2235.3272     -12136.976    
     26300   214.15442      425.78938     -2244.7296      9.3563916     -2235.3732     -8245.0926    
     26350   193.4961       384.71578     -2243.8627      8.4538311     -2235.4088     -9881.0407    
     26400   231.41704      460.11153     -2245.5784      10.110594     -2235.4678     -13212.595    
     26450   208.76087      415.06573     -2244.6296      9.1207476     -2235.5088     -12903.658    
     26500   227.43414      452.19259     -2245.532       9.9365815     -2235.5954     -10772.793    
     26550   185.07645      367.97553     -2243.6986      8.085977      -2235.6126     -16408.972    
     26600   191.57201      380.89024     -2244.0392      8.3697676     -2235.6694     -12531.985    
     26650   171.95556      341.88812     -2242.7624      7.5127264     -2235.2497     -14041.152    
     26700   189.54781      376.86564     -2243.456       8.2813301     -2235.1747     -13732.277    
     26750   212.47125      422.44283     -2244.5213      9.2828537     -2235.2385     -11970.987    
     26800   190.24172      378.24531     -2243.5837      8.3116474     -2235.2721     -11978.647    
     26850   215.3181       428.10304     -2244.7633      9.4072323     -2235.356      -9993.5802    
     26900   184.54626      366.92139     -2243.441       8.062813      -2235.3782     -13536.744    
     26950   183.31341      364.4702      -2243.4208      8.00895       -2235.4118     -10371.144    
     27000   184.43943      366.70898     -2243.5357      8.0581456     -2235.4775     -15230.294    
     27050   198.1318       393.93264     -2244.1739      8.6563643     -2235.5175     -10276.868    
     27100   184.35864      366.54836     -2243.6315      8.054616      -2235.5769     -13806.087    
     27150   198.89594      395.45192     -2244.3221      8.6897494     -2235.6324     -13089.347    
     27200   197.08444      391.85024     -2244.2885      8.6106051     -2235.6779     -9273.8857    
     27250   180.69629      359.26673     -2243.6026      7.8946079     -2235.708      -15137.046    
     27300   180.90558      359.68285     -2243.6506      7.9037518     -2235.7469     -13096.645    
     27350   175.71137      349.35556     -2243.4724      7.6768175     -2235.7956     -15899.167    
     27400   185.51223      368.84196     -2243.9439      8.1050161     -2235.8389     -11610.936    
     27450   204.68629      406.9645      -2244.8189      8.9427294     -2235.8762     -12103.079    
     27500   182.66693      363.18484     -2243.9027      7.9807052     -2235.922      -12467.284    
     27550   206.22451      410.02284     -2244.9762      9.009934      -2235.9663     -11225.832    
     27600   201.45789      400.54569     -2244.8094      8.8016809     -2236.0077     -11682.8      
     27650   191.74233      381.22886     -2244.4232      8.3772087     -2236.046      -13015.249    
     27700   182.09263      362.043       -2244.04        7.9556143     -2236.0844     -10144.227    
     27750   181.12319      360.11552     -2244.0423      7.9132593     -2236.1291     -14281.919    
     27800   158.66766      315.46863     -2243.1047      6.9321786     -2236.1726     -11685.252    
     27850   174.22013      346.39061     -2243.8209      7.611665      -2236.2092     -11675.519    
     27900   183.16872      364.18252     -2244.2551      8.0026286     -2236.2525     -12618.006    
     27950   187.9211       373.63136     -2244.5059      8.2102595     -2236.2957     -13889.466    
     28000   194.3076       386.32923     -2244.8194      8.4892852     -2236.3301     -13651.846    
     28050   180.31236      358.50339     -2244.2496      7.8778341     -2236.3717     -12765.905    
     28100   179.66098      357.2083      -2244.2596      7.8493755     -2236.4102     -11478.097    
     28150   185.08838      367.99925     -2244.54        8.0864981     -2236.4535     -11990.228    
     28200   191.68981      381.12445     -2244.8722      8.3749144     -2236.4973     -14289.461    
     28250   190.27825      378.31794     -2244.8611      8.3132433     -2236.5478     -14268.442    
     28300   183.27945      364.40268     -2244.5941      8.0074663     -2236.5867     -13300.225    
     28350   183.98977      365.81496     -2244.6804      8.0385002     -2236.6419     -14204.434    
     28400   165.69773      329.44608     -2243.9152      7.2393221     -2236.6759     -15602.036    
     28450   194.19919      386.11369     -2245.2259      8.4845489     -2236.7414     -12345.188    
     28500   199.01975      395.69809     -2245.4715      8.6951588     -2236.7763     -12737.945    
     28550   169.94122      337.88314     -2244.2383      7.42472       -2236.8136     -15372.67     
     28600   180.43696      358.75114     -2244.739       7.8832781     -2236.8558     -14171.239    
     28650   170.94699      339.88283     -2244.373       7.4686618     -2236.9043     -12296.849    
     28700   161.7311       321.55948     -2244.0042      7.0660203     -2236.9382     -14359.688    
     28750   196.731        391.14751     -2245.586       8.5951633     -2236.9909     -11552.002    
     28800   169.29808      336.60441     -2244.4307      7.396621      -2237.0341     -14192.357    
     28850   172.50772      342.98593     -2244.6244      7.5368498     -2237.0876     -10104.696    
     28900   173.68467      345.32599     -2244.7169      7.5882709     -2237.1286     -12069.071    
     28950   179.00134      355.89677     -2244.9995      7.8205556     -2237.1789     -11891.821    
     29000   178.29475      354.49191     -2245.0107      7.7896848     -2237.221      -13909.441    
     29050   162.33055      322.75133     -2244.3664      7.0922102     -2237.2741     -11066.776    
     29100   172.57951      343.12868     -2244.8567      7.5399867     -2237.3167     -11577.654    
     29150   174.54975      347.04598     -2244.9892      7.6260663     -2237.3632     -13766.569    
     29200   184.67037      367.16814     -2245.4781      8.0682351     -2237.4098     -14844.012    
     29250   175.47344      348.88249     -2245.1239      7.6664223     -2237.4574     -10850.303    
     29300   172.72137      343.41073     -2245.0485      7.5461845     -2237.5023     -9310.6534    
     29350   173.73328      345.42264     -2245.1429      7.5903948     -2237.5525     -12125.91     
     29400   177.85208      353.61178     -2245.3688      7.7703447     -2237.5985     -13872.37     
     29450   175.82553      349.58252     -2245.3288      7.6818048     -2237.647      -13616.249    
     29500   179.18498      356.26189     -2245.5224      7.8285788     -2237.6939     -13587.709    
     29550   173.78002      345.51557     -2245.3402      7.5924367     -2237.7477     -13522.484    
     29600   155.2959       308.76478     -2244.5745      6.7848667     -2237.7897     -15764.275    
     29650   158.54833      315.23139     -2244.7598      6.9269653     -2237.8329     -11989.479    
     29700   180.13677      358.15429     -2245.7476      7.8701629     -2237.8774     -10956.536    
     29750   169.71275      337.42887     -2245.3304      7.4147378     -2237.9157     -15608.307    
     29800   156.95692      312.06729     -2244.8135      6.8574368     -2237.9561     -12760.328    
     29850   163.51806      325.11237     -2245.1435      7.1440922     -2237.9994     -14761.679    
     29900   168.1463       334.31442     -2245.3866      7.3463001     -2238.0403     -14994.161    
     29950   159.67021      317.46194     -2245.0621      6.97598       -2238.0861     -11796.498    
     30000   166.85158      331.74021     -2245.4136      7.2897339     -2238.1239     -11650.327    
     30050   173.42262      344.80498     -2245.7478      7.5768221     -2238.171      -15229.825    
     30100   174.61776      347.18119     -2245.8399      7.6290375     -2238.2109     -13969.724    
     30150   160.2715       318.65746     -2245.2487      7.0022506     -2238.2464     -12403.757    
     30200   164.35299      326.77241     -2245.4638      7.1805705     -2238.2832     -12614.629    
     30250   172.87542      343.71702     -2245.8808      7.552915      -2238.3279     -15540.271    
     30300   147.24671      292.76111     -2244.7935      6.4331984     -2238.3603     -14110.622    
     30350   167.08256      332.19944     -2245.695       7.2998252     -2238.3952     -15213.621    
     30400   150.41889      299.06814     -2245.002       6.5717905     -2238.4302     -11921.178    
     30450   170.43235      338.85961     -2245.9136      7.4461772     -2238.4674     -13437.105    
     30500   169.95979      337.92006     -2245.9292      7.4255313     -2238.5037     -15215.066    
     30550   154.31365      306.81185     -2245.2806      6.7419526     -2238.5387     -13015.838    
     30600   155.27466      308.72255     -2245.3568      6.7839387     -2238.5729     -12166.112    
     30650   161.38411      320.86958     -2245.6623      7.0508603     -2238.6114     -12726.974    
     30700   151.71202      301.6392      -2245.2715      6.6282876     -2238.6432     -13810.287    
     30750   155.88627      309.93858     -2245.4834      6.8106601     -2238.6728     -12149.523    
     30800   155.27374      308.72073     -2245.4932      6.7838987     -2238.7094     -16178.347    
     30850   157.56036      313.26707     -2245.6281      6.883801      -2238.7443     -10675.607    
     30900   159.95207      318.02235     -2245.7623      6.9882945     -2238.7741     -14249.871    
     30950   152.77338      303.74943     -2245.4879      6.6746583     -2238.8132     -10524.19     
     31000   159.57671      317.27605     -2245.8182      6.9718951     -2238.8464     -15556.444    
     31050   176.56309      351.04898     -2246.6047      7.714029      -2238.8907     -14174.242    
     31100   154.59329      307.36784     -2245.6752      6.75417       -2238.921      -12287.157    
     31150   157.34439      312.83767     -2245.8268      6.8743652     -2238.9524     -14242.615    
     31200   163.35213      324.78247     -2246.1246      7.136843      -2238.9877     -14899.728    
     31250   142.7902       283.90051     -2245.2519      6.2384935     -2239.0134     -13837.382    
     31300   148.27422      294.80403     -2245.5264      6.47809       -2239.0483     -15086.289    
     31350   148.65755      295.56619     -2245.5749      6.4948379     -2239.08       -12934.966    
     31400   157.66545      313.47601     -2246.0036      6.8883923     -2239.1152     -12211.499    
     31450   159.63073      317.38346     -2246.1158      6.9742554     -2239.1415     -11226.665    
     31500   161.97954      322.05343     -2246.2479      7.0768744     -2239.171      -13825.389    
     31550   152.12589      302.46206     -2245.8435      6.6463693     -2239.1972     -12201.894    
     31600   161.199        320.50154     -2246.2769      7.0427728     -2239.2342     -13925.636    
     31650   161.15933      320.42266     -2246.3064      7.0410395     -2239.2653     -13300.552    
     31700   156.66316      311.48323     -2246.1362      6.8446024     -2239.2916     -15944.998    
     31750   153.77859      305.74802     -2246.0442      6.7185756     -2239.3256     -13246.634    
     31800   153.21766      304.63276     -2246.0458      6.6940687     -2239.3518     -14107.796    
     31850   149.97021      298.17607     -2245.928       6.552188      -2239.3758     -13624.182    
     31900   153.208        304.61355     -2246.0947      6.6936466     -2239.4011     -13977.418    
     31950   156.83437      311.82363     -2246.2898      6.8520824     -2239.4377     -14225.789    
     32000   154.77557      307.73026     -2246.2248      6.7621338     -2239.4627     -13528.557    
     32050   155.62348      309.41609     -2246.2887      6.7991787     -2239.4895     -13584.851    
     32100   154.97373      308.12425     -2246.29        6.7707914     -2239.5192     -13289.434    
     32150   140.18048      278.71177     -2245.6697      6.124475      -2239.5452     -14399.628    
     32200   141.26509      280.86825     -2245.745       6.1718619     -2239.5731     -14244.345    
     32250   146.54382      291.36359     -2246.0063      6.402489      -2239.6038     -12412.889    
     32300   151.85203      301.91757     -2246.2611      6.6344046     -2239.6267     -14525.328    
     32350   162.45957      323.00785     -2246.7591      7.097847      -2239.6612     -12617.429    
     32400   139.36051      277.08148     -2245.7666      6.0886508     -2239.678      -10935.554    
     32450   150.10572      298.44549     -2246.2608      6.5581082     -2239.7027     -14116.087    
     32500   145.12624      288.54511     -2246.0711      6.3405551     -2239.7305     -15227.154    
     32550   156.11325      310.38988     -2246.5735      6.8205769     -2239.7529     -13843.238    
     32600   152.98259      304.16539     -2246.4609      6.6837987     -2239.7771     -13865.332    
     32650   152.26002      302.72875     -2246.4603      6.6522296     -2239.8081     -12916.719    
     32700   148.3494       294.95351     -2246.3132      6.4813747     -2239.8318     -13689.897    
     32750   143.84239      285.99252     -2246.1377      6.2844639     -2239.8533     -13141.71     
     32800   139.80648      277.96818     -2245.9922      6.1081353     -2239.8841     -13284.361    
     32850   139.5083       277.37533     -2246.0057      6.0951078     -2239.9106     -13036.243    
     32900   150.16515      298.56364     -2246.4893      6.5607046     -2239.9286     -13802.336    
     32950   146.34353      290.96537     -2246.3431      6.3937385     -2239.9494     -16668.702    
     33000   149.22057      296.68561     -2246.4902      6.5194362     -2239.9708     -12285.473    
     33050   160.73758      319.58413     -2247.0177      7.0226135     -2239.9951     -13187.796    
     33100   143.65613      285.62218     -2246.2892      6.276326      -2240.0128     -14787.179    
     33150   143.50106      285.31386     -2246.3055      6.2695509     -2240.036      -11834.174    
     33200   148.08395      294.42573     -2246.5255      6.4697771     -2240.0558     -12555.895    
     33250   152.02711      302.26566     -2246.7182      6.6420536     -2240.0761     -12976.536    
     33300   148.14166      294.54047     -2246.5639      6.4722985     -2240.0916     -10595.998    
     33350   147.90335      294.06666     -2246.5766      6.4618869     -2240.1147     -13026.107    
     33400   146.54584      291.36762     -2246.5362      6.4025774     -2240.1336     -15302.092    
     33450   138.30209      274.9771      -2246.1889      6.0424085     -2240.1465     -16586.419    
     33500   143.23082      284.77657     -2246.4326      6.2577444     -2240.1749     -12688.779    
     33550   143.46316      285.23853     -2246.453       6.2678955     -2240.1851     -14161.88     
     33600   139.64088      277.63893     -2246.297       6.1009002     -2240.1961     -14371.01     
     33650   140.19899      278.74858     -2246.3402      6.125284      -2240.2149     -14935.463    
     33700   141.76317      281.85853     -2246.4239      6.1936226     -2240.2303     -14793.861    
     33750   137.94475      274.26663     -2246.2667      6.0267965     -2240.2399     -14203.33     
     33800   149.47554      297.19255     -2246.7859      6.5305759     -2240.2553     -11899.411    
     33850   145.57497      289.4373      -2246.623       6.3601602     -2240.2629     -16176.471    
     33900   158.46594      315.06758     -2247.2054      6.9233659     -2240.2821     -12302.548    
     33950   152.48063      303.16737     -2246.9492      6.6618679     -2240.2874     -11536.022    
     34000   145.93964      290.16233     -2246.6783      6.3760923     -2240.3022     -12845.759    
     34050   142.63699      283.5959      -2246.5437      6.2317999     -2240.3119     -14428.373    
     34100   151.17458      300.57064     -2246.9349      6.6048067     -2240.3301     -11436.748    
     34150   147.90683      294.07358     -2246.8079      6.4620389     -2240.3459     -14999.459    
     34200   143.304        284.92207     -2246.6199      6.2609417     -2240.359      -14508.35     
     34250   149.90978      298.05591     -2246.9173      6.5495475     -2240.3678     -11884.728    
     34300   145.5462       289.3801      -2246.7441      6.3589033     -2240.3852     -14453.965    
     34350   146.0942       290.46965     -2246.7768      6.3828453     -2240.394      -12425.141    
     34400   143.64907      285.60816     -2246.6864      6.2760178     -2240.4104     -14346.368    
     34450   146.2063       290.69253     -2246.8021      6.3877429     -2240.4143     -14603.907    
     34500   164.87869      327.81763     -2247.6436      7.2035383     -2240.4401     -13710.974    
     34550   152.11549      302.44138     -2247.0926      6.6459149     -2240.4467     -13578.655    
     34600   152.58474      303.37436     -2247.1238      6.6664164     -2240.4574     -13505.716    
     34650   150.03279      298.30049     -2247.0261      6.554922      -2240.4712     -11807.606    
[...]
    191150   158.82382      315.77913     -2260.4303      6.9390016     -2253.4913     -25523.655    
    191200   148.66348      295.57797     -2259.9729      6.4950968     -2253.4778     -25805.248    
    191250   146.33072      290.93991     -2259.859       6.3931789     -2253.4658     -24836.779    
    191300   150.69118      299.60952     -2260.0515      6.583687      -2253.4678     -26507.973    
    191350   145.15363      288.59958     -2259.7968      6.341752      -2253.4551     -24073.196    
    191400   154.60497      307.39107     -2260.2073      6.7546804     -2253.4526     -24809.006    
    191450   152.07424      302.35937     -2260.0841      6.6441127     -2253.44       -27848.821    
    191500   153.11574      304.43013     -2260.1247      6.689616      -2253.4351     -26177.137    
    191550   146.63754      291.54994     -2259.8389      6.4065839     -2253.4324     -23268.917    
    191600   145.91795      290.11922     -2259.7903      6.3751448     -2253.4152     -27588.912    
    191650   151.5263       301.26994     -2260.0328      6.6201733     -2253.4126     -25789.975    
    191700   159.39628      316.91731     -2260.3754      6.9640121     -2253.4114     -26646.382    
    191750   142.7271       283.77505     -2259.6351      6.2357367     -2253.3994     -25424.158    
    191800   154.99839      308.17326     -2260.1695      6.7718685     -2253.3977     -23509.378    
    191850   160.17214      318.4599      -2260.3887      6.9979093     -2253.3908     -23920.619    
    191900   138.77707      275.92148     -2259.4453      6.0631605     -2253.3822     -26343.698    
    191950   156.70863      311.57363     -2260.2257      6.846589      -2253.3791     -23959.462    
    192000   145.42867      289.14642     -2259.7093      6.3537684     -2253.3555     -25871.424    
    192050   150.17889      298.59098     -2259.9158      6.5613052     -2253.3545     -28259.487    
    192100   154.66563      307.51167     -2260.1085      6.7573306     -2253.3511     -26224.496    
    192150   151.45487      301.12791     -2259.9582      6.6170524     -2253.3411     -28674.079    
    192200   155.38185      308.93567     -2260.1287      6.7886219     -2253.3401     -24887.649    
    192250   156.91626      311.98645     -2260.1912      6.8556604     -2253.3356     -28247.715    
    192300   157.08849      312.32887     -2260.1921      6.8631849     -2253.3289     -24945.063    
    192350   148.11431      294.4861      -2259.785       6.4711038     -2253.3139     -25308.284    
    192400   151.99418      302.20019     -2259.9421      6.6406149     -2253.3014     -30642.768    
    192450   157.98809      314.1175      -2260.2066      6.9024885     -2253.3041     -29836.505    
    192500   154.16445      306.5152      -2260.0314      6.7354338     -2253.296      -24822.498    
    192550   157.88182      313.90621     -2260.1888      6.8978456     -2253.2909     -27307.96     
    192600   160.62149      319.35331     -2260.3027      7.0175414     -2253.2851     -27720.692    
    192650   159.12259      316.37315     -2260.2279      6.9520547     -2253.2758     -25065.597    
    192700   150.64673      299.52115     -2259.8487      6.581745      -2253.2669     -26747.359    
    192750   147.02362      292.31755     -2259.6781      6.4234516     -2253.2547     -27331.537    
    192800   157.13309      312.41755     -2260.117       6.8651334     -2253.2519     -28258.54     
    192850   160.70801      319.52534     -2260.2624      7.0213215     -2253.2411     -25019.221    
    192900   152.58844      303.38173     -2259.8987      6.6665783     -2253.2322     -21793.604    
    192950   156.19871      310.55979     -2260.043       6.8243106     -2253.2187     -27900.132    
    193000   151.28593      300.79204     -2259.8242      6.6096718     -2253.2146     -22996.433    
    193050   157.97802      314.09748     -2260.112       6.9020486     -2253.21       -25047.081    
    193100   151.533        301.28326     -2259.8203      6.6204661     -2253.1999     -27005.877    
    193150   136.41087      271.2169      -2259.1522      5.9597812     -2253.1924     -26291.106    
    193200   158.38648      314.90959     -2260.1106      6.9198941     -2253.1907     -30528.498    
    193250   156.16172      310.48624     -2260.0033      6.8226943     -2253.1806     -26216.19     
    193300   151.80001      301.81414     -2259.8064      6.6321318     -2253.1743     -28423.021    
    193350   149.53995      297.3206      -2259.699       6.5333898     -2253.1656     -25501.019    
    193400   155.05515      308.28611     -2259.9275      6.7743483     -2253.1531     -25624.305    
    193450   159.89585      317.91057     -2260.1302      6.9858382     -2253.1443     -24878.28     
    193500   163.36983      324.81766     -2260.2717      7.1376163     -2253.1341     -23448.721    
    193550   150.5821       299.39265     -2259.7027      6.5789213     -2253.1238     -26299.566    
    193600   153.85749      305.90488     -2259.8341      6.7220226     -2253.1121     -26830.475    
    193650   153.19875      304.59516     -2259.7999      6.6932426     -2253.1067     -27943.922    
    193700   148.34175      294.93831     -2259.5748      6.4810406     -2253.0938     -27671.961    
    193750   160.61894      319.34825     -2260.1157      7.0174302     -2253.0983     -25918.742    
    193800   171.34702      340.67819     -2260.5695      7.486139      -2253.0833     -29693.039    
    193850   153.6986       305.58899     -2259.7874      6.7150811     -2253.0723     -25873.491    
    193900   157.10247      312.35668     -2259.9277      6.8637958     -2253.0639     -26142.635    
    193950   162.24134      322.57397     -2260.1394      7.0883128     -2253.0511     -27989.835    
    194000   167.87489      333.77479     -2260.3708      7.3344422     -2253.0364     -25971.895    
    194050   149.15784      296.56089     -2259.5361      6.5166955     -2253.0194     -26173.938    
    194100   149.75528      297.74873     -2259.552       6.5427976     -2253.0092     -27650.469    
    194150   157.72766      313.5997      -2259.8938      6.8911103     -2253.0027     -23892.202    
    194200   157.59255      313.33108     -2259.8788      6.8852075     -2252.9936     -24350.727    
    194250   151.13487      300.49169     -2259.5824      6.6030719     -2252.9793     -25099.741    
    194300   161.27838      320.65937     -2260.0119      7.0462411     -2252.9657     -24993.315    
    194350   169.30655      336.62125     -2260.3466      7.3969911     -2252.9496     -25359.687    
    194400   154.92766      308.03263     -2259.7034      6.7687783     -2252.9346     -23104.022    
    194450   164.32992      326.72655     -2260.1029      7.1795625     -2252.9234     -23405.04     
    194500   158.56709      315.26868     -2259.8369      6.9277847     -2252.9091     -26685.413    
    194550   161.09204      320.28888     -2259.9406      7.0380997     -2252.9025     -23137.622    
    194600   164.66377      327.39033     -2260.0847      7.1941486     -2252.8906     -23884.693    
    194650   153.96752      306.12366     -2259.6057      6.72683       -2252.8788     -27966.135    
    194700   154.37159      306.92705     -2259.6078      6.7444839     -2252.8633     -25528.708    
    194750   149.3744       296.99145     -2259.3756      6.5261569     -2252.8495     -25864.18     
    194800   162.16686      322.42588     -2259.9239      7.0850588     -2252.8389     -28116.544    
    194850   143.66213      285.63412     -2259.097       6.2765884     -2252.8204     -22590.729    
    194900   141.96581      282.26142     -2259.0127      6.202476      -2252.8102     -26745.109    
    194950   164.01296      326.09636     -2259.9721      7.1657146     -2252.8064     -27299.336    
    195000   166.19419      330.43316     -2260.0543      7.2610126     -2252.7933     -26462.626    
    195050   155.61809      309.40537     -2259.578       6.7989431     -2252.779      -28732.784    
    195100   151.91436      302.04149     -2259.4056      6.6371276     -2252.7685     -28465.057    
    195150   154.37331      306.93047     -2259.4972      6.744559      -2252.7527     -32526.671    
    195200   161.46045      321.02136     -2259.7987      7.0541956     -2252.7445     -23487.356    
    195250   152.00319      302.21811     -2259.3632      6.6410087     -2252.7222     -26189.747    
    195300   153.82696      305.8442      -2259.4325      6.7206891     -2252.7119     -27324.061    
    195350   154.65072      307.48201     -2259.4526      6.7566789     -2252.6959     -23764.955    
    195400   155.2436       308.66081     -2259.464       6.782582      -2252.6815     -26979.132    
    195450   145.80937      289.90334     -2259.0362      6.3704011     -2252.6658     -26540.008    
    195500   145.53229      289.35243     -2259.0168      6.3582953     -2252.6585     -24051.321    
    195550   157.84325      313.82953     -2259.5419      6.8961606     -2252.6457     -29545.674    
    195600   155.76131      309.69014     -2259.433       6.8052007     -2252.6278     -27459.629    
    195650   154.34778      306.8797      -2259.3511      6.7434434     -2252.6076     -22261.57     
    195700   147.90842      294.07675     -2259.0573      6.4621085     -2252.5952     -21345.332    
    195750   161.70415      321.50589     -2259.649       7.0648427     -2252.5841     -28152.432    
    195800   164.21319      326.49447     -2259.7426      7.1744627     -2252.5682     -23891.671    
    195850   152.36845      302.94432     -2259.2089      6.6569666     -2252.5519     -29540.479    
    195900   150.97635      300.17651     -2259.1357      6.596146      -2252.5396     -26553.443    
    195950   157.34008      312.8291      -2259.3988      6.8741769     -2252.5246     -25251.836    
    196000   163.37079      324.81957     -2259.6482      7.1376583     -2252.5106     -25221.928    
    196050   162.13137      322.35531     -2259.5769      7.083508      -2252.4934     -26281.916    
    196100   153.78383      305.75843     -2259.1948      6.7188044     -2252.476      -28491.482    
    196150   160.91199      319.9309      -2259.4973      7.0302335     -2252.467      -25180.793    
    196200   159.41085      316.94628     -2259.4183      6.9646489     -2252.4537     -25809.557    
    196250   163.99507      326.06079     -2259.6031      7.164933      -2252.4381     -27706.267    
    196300   151.94509      302.1026      -2259.0622      6.6384703     -2252.4237     -25213.385    
    196350   154.09461      306.37634     -2259.1419      6.7323825     -2252.4095     -25422.471    
    196400   157.83842      313.81991     -2259.2912      6.8959492     -2252.3952     -27176.912    
    196450   147.98261      294.22425     -2258.8518      6.4653498     -2252.3865     -23288.875    
    196500   171.8458       341.66988     -2259.8808      7.5079308     -2252.3728     -24356.176    
    196550   163.56099      325.19774     -2259.5035      7.1459682     -2252.3575     -26740.224    
    196600   174.55316      347.05275     -2259.9707      7.6262151     -2252.3445     -24074.883    
    196650   164.24171      326.55117     -2259.5058      7.1757088     -2252.3301     -22132.635    
    196700   152.81524      303.83266     -2258.9895      6.6764872     -2252.313      -25249.563    
    196750   171.4699       340.92251     -2259.7994      7.4915077     -2252.3079     -26821.662    
    196800   158.34569      314.8285      -2259.2136      6.9181121     -2252.2955     -26267.18     
    196850   160.3115       318.73699     -2259.2951      7.0039981     -2252.2911     -24825.068    
    196900   155.10278      308.38082     -2259.0493      6.7764295     -2252.2729     -25247.588    
    196950   174.1424       346.23607     -2259.8744      7.6082691     -2252.2661     -26134.149    
    197000   164.66641      327.39556     -2259.4493      7.1942637     -2252.255      -27435.226    
    197050   173.4627       344.88465     -2259.8348      7.5785729     -2252.2563     -26032.193    
    197100   166.65215      331.34369     -2259.5226      7.2810206     -2252.2416     -24378.997    
    197150   154.40981      307.00304     -2258.9782      6.7461537     -2252.2321     -23070.967    
    197200   156.11236      310.38811     -2259.0467      6.820538      -2252.2261     -28412.347    
    197250   163.43364      324.94454     -2259.3621      7.1404043     -2252.2217     -24993.901    
    197300   161.35941      320.82047     -2259.2586      7.0497811     -2252.2088     -26483.222    
    197350   151.23404      300.68886     -2258.8244      6.6074046     -2252.217      -24915.021    
    197400   161.25508      320.61305     -2259.2492      7.0452232     -2252.204      -29864.087    
    197450   161.8908       321.877       -2259.2743      7.0729976     -2252.2013     -25122.421    
    197500   149.87207      297.98094     -2258.7407      6.5479001     -2252.1928     -25940.366    
    197550   142.6769       283.67525     -2258.4292      6.2335438     -2252.1957     -26706.273    
    197600   157.89739      313.93716     -2259.0945      6.8985257     -2252.196      -27262.034    
    197650   152.61636      303.43723     -2258.8541      6.667798      -2252.1863     -30807.489    
    197700   168.01557      334.05449     -2259.528       7.3405884     -2252.1874     -29524.636    
    197750   165.31145      328.67806     -2259.4082      7.2224456     -2252.1858     -28190.07     
    197800   173.82866      345.61228     -2259.781       7.594562      -2252.1865     -24019.466    
    197850   170.72893      339.44928     -2259.6379      7.4591346     -2252.1788     -27208.383    
    197900   162.15649      322.40525     -2259.2648      7.0846053     -2252.1802     -23835.501    
    197950   165.44554      328.94466     -2259.4107      7.2283039     -2252.1824     -25459.167    
    198000   163.90843      325.88853     -2259.3451      7.1611479     -2252.1839     -19296.374    
    198050   163.95985      325.99076     -2259.3448      7.1633941     -2252.1814     -24517.989    
    198100   165.27973      328.61499     -2259.4053      7.2210597     -2252.1842     -27091.481    
    198150   157.45859      313.06472     -2259.0667      6.8793546     -2252.1873     -24066.967    
    198200   151.02295      300.26916     -2258.7912      6.598182      -2252.193      -26548.46     
    198250   155.07826      308.33208     -2258.9761      6.7753583     -2252.2007     -28489.856    
    198300   165.04536      328.14901     -2259.4163      7.2108201     -2252.2054     -26248.013    
    198350   155.00108      308.17861     -2258.9834      6.771986      -2252.2114     -28259.166    
    198400   151.36701      300.95324     -2258.8328      6.613214      -2252.2195     -24416.69     
    198450   151.13765      300.4972      -2258.8292      6.603193      -2252.226      -21728.763    
    198500   171.14223      340.27103     -2259.7253      7.477192      -2252.2481     -24852.945    
    198550   165.85264      329.75406     -2259.4993      7.2460899     -2252.2532     -26789.652    
    198600   160.79966      319.70755     -2259.2835      7.0253256     -2252.2581     -25546.251    
    198650   169.04748      336.10616     -2259.6623      7.3856724     -2252.2766     -26832.173    
    198700   171.57384      341.12917     -2259.7847      7.496049      -2252.2886     -25360.646    
    198750   164.41739      326.90046     -2259.4882      7.1833842     -2252.3048     -24979.669    
    198800   160.73044      319.56994     -2259.3358      7.0223016     -2252.3135     -27499.697    
    198850   166.25924      330.56248     -2259.5942      7.2638543     -2252.3304     -24381.202    
    198900   172.22149      342.41685     -2259.8772      7.5243448     -2252.3528     -22508.849    
    198950   161.43639      320.97353     -2259.4144      7.0531444     -2252.3612     -26432.484    
    199000   152.05447      302.32007     -2259.0251      6.6432492     -2252.3818     -24176.794    
    199050   156.65101      311.45906     -2259.2509      6.8440714     -2252.4069     -29910.249    
    199100   160.18257      318.48064     -2259.4247      6.9983652     -2252.4263     -28068.654    
    199150   158.93458      315.99934     -2259.3904      6.9438404     -2252.4465     -24729.207    
    199200   142.0282       282.38547     -2258.6674      6.2052018     -2252.4622     -25126.425    
    199250   148.24051      294.73702     -2258.9705      6.4766176     -2252.4939     -21919.175    
    199300   158.20504      314.54885     -2259.4256      6.911967      -2252.5136     -28182.92     
    199350   155.59106      309.35164     -2259.3389      6.7977624     -2252.5411     -27082.21     
    199400   169.57534      337.15568     -2259.9794      7.4087346     -2252.5707     -27392.323    
    199450   144.66809      287.6342      -2258.9013      6.3205385     -2252.5807     -26886.403    
    199500   160.37123      318.85573     -2259.6174      7.0066075     -2252.6108     -26182.836    
    199550   161.5647       321.22863     -2259.6989      7.0587501     -2252.6401     -27529.922    
    199600   152.81758      303.8373      -2259.3467      6.6765892     -2252.6701     -26762.275    
    199650   154.29982      306.78434     -2259.4444      6.741348      -2252.703      -27569.727    
    199700   161.85413      321.8041      -2259.8034      7.0713955     -2252.732      -23748.448    
    199750   152.80778      303.81783     -2259.4344      6.6761612     -2252.7582     -26179.462    
    199800   157.0236       312.19986     -2259.6557      6.8603498     -2252.7953     -26332.479    
    199850   157.67705      313.49907     -2259.7113      6.8888989     -2252.8224     -27203.216    
    199900   164.01354      326.09752     -2260.0173      7.1657401     -2252.8516     -27693.308    
    199950   164.54079      327.14581     -2260.0678      7.1887755     -2252.879      -26607.509    
    200000   152.57227      303.34957     -2259.5736      6.6658716     -2252.9078     -28544.892    
colvars: Saving collective variables state to "out.colvars.state".
colvars:   Writing TI PMF to file "out.metadynamics1.ti.pmf".
Loop time of 986.954 on 4 procs for 200000 steps with 339 atoms

Performance: 8.754 ns/day, 2.742 hours/ns, 202.644 timesteps/s, 68.696 katom-step/s
137.3% CPU use with 4 MPI tasks x 1 OpenMP threads

MPI task timing breakdown:
Section |  min time  |  avg time  |  max time  |%varavg| %total
---------------------------------------------------------------
Pair    | 752.83     | 866.95     | 951.68     | 268.2 | 87.84
Neigh   | 0.17582    | 1.1706     | 2.0427     |  63.1 |  0.12
Comm    | 13.841     | 85.423     | 187.78     | 732.2 |  8.66
Output  | 4.6099     | 5.4899     | 6.4955     |  37.0 |  0.56
Modify  | 11.677     | 25.257     | 39.474     | 269.3 |  2.56
Other   |            | 2.666      |            |       |  0.27

Nlocal:          84.75 ave         139 max          11 min
Histogram: 1 0 0 0 0 0 2 0 0 1
Nghost:         1137.5 ave        1622 max         555 min
Histogram: 1 0 0 0 0 1 1 0 0 1
Neighs:              0 ave           0 max           0 min
Histogram: 4 0 0 0 0 0 0 0 0 0
FullNghs:      15776.5 ave       31292 max         887 min
Histogram: 1 0 0 0 1 1 0 0 0 1

Total # of neighbors = 63106
Ave neighs/atom = 186.15339
Neighbor list builds = 2062
Dangerous builds = 0
System init for write_data ...
Generated 0 of 6 mixed pair_coeff terms from geometric mixing rule

CITE-CITE-CITE-CITE-CITE-CITE-CITE-CITE-CITE-CITE-CITE-CITE-CITE

Your simulation uses code contributions which should be cited:
- Colvars module (Fiorin2013, plus other works listed for specific features)
The log file lists these citations in BibTeX format.

CITE-CITE-CITE-CITE-CITE-CITE-CITE-CITE-CITE-CITE-CITE-CITE-CITE

Total wall time: 0:16:51
