 # File generated with Atomsk by baoergen22b on 2025-10-11 22:45:52
  
         339  atoms
           4  atom types
 
      0.000000000000      11.328000000000  xlo xhi
      0.000000000000      12.015000000000  ylo yhi
      0.000000000000      32.000000000000  zlo zhi
 
Masses
 
            1   55.84500000             # Fe
            2   15.99900000             # O
            3   1.00800000              # H
            4   35.45000000             # Cl
 
Atoms # atomic
 
         1    1        0.000000000000       0.000000000000       0.000000000000
         2    1        0.000000000000       2.002540050000       2.002880000000
         3    1       11.328000000000       0.000000000000       4.005120000000
         4    1        0.000000000000       2.002540050000       6.008000000000
         5    1        0.000000000000       0.000000000000       8.009920000000
         6    1        0.000000000000       2.002540050000      10.011808000000
         7    1        0.000000000000       0.000000000000      12.015008000000
         8    1        1.416000000000       2.002540050000       0.000000000000
         9    1        1.416000000000       0.000000000000       2.002880000000
        10    1        1.416000000000       2.002540050000       4.005120000000
        11    1        1.416000000000       0.000000000000       6.008000000000
        12    1        1.416000000000       2.002540050000       8.009920000000
        13    1        1.416000000000       0.000000000000      10.011808000000
        14    1        1.416000000000       2.002540050000      12.015008000000
        15    1        2.832000000000       0.000000000000       0.000000000000
        16    1        2.832000000000       2.002540050000       2.002880000000
        17    1        2.832000000000       0.000000000000       4.005120000000
        18    1        2.832000000000       2.002540050000       6.008000000000
        19    1        2.832000000000       0.000000000000       8.009920000000
        20    1        2.832000000000       2.002540050000      10.011808000000
        21    1        2.832000000000       0.000000000000      12.015008000000
        22    1        4.248000000000       2.002540050000       0.000000000000
        23    1        4.248000000000       0.000000000000       2.002880000000
        24    1        4.248000000000       2.002540050000       4.005120000000
        25    1        4.248000000000       0.000000000000       6.008000000000
        26    1        4.248000000000       2.002540050000       8.009920000000
        27    1        4.248000000000       0.000000000000      10.011808000000
        28    1        4.248000000000       2.002540050000      12.015008000000
        29    1        5.664000000000       0.000000000000       0.000000000000
        30    1        5.664000000000       2.002540050000       2.002880000000
        31    1        5.664000000000       0.000000000000       4.005120000000
        32    1        5.664000000000       2.002540050000       6.008000000000
        33    1        5.664000000000       0.000000000000       8.009920000000
        34    1        5.664000000000       2.002540050000      10.011808000000
        35    1        5.664000000000       0.000000000000      12.015008000000
        36    1        7.080000000000       2.002540050000       0.000000000000
        37    1        7.080000000000       0.000000000000       2.002880000000
        38    1        7.080000000000       2.002540050000       4.005120000000
        39    1        7.080000000000       0.000000000000       6.008000000000
        40    1        7.080000000000       2.002540050000       8.009920000000
        41    1        7.080000000000       0.000000000000      10.011808000000
        42    1        7.080000000000       2.002540050000      12.015008000000
        43    1        8.496000000000       0.000000000000       0.000000000000
        44    1        8.496000000000       2.002540050000       2.002880000000
        45    1        8.496000000000       0.000000000000       4.005120000000
        46    1        8.496000000000       2.002540050000       6.008000000000
        47    1        8.496000000000       0.000000000000       8.009920000000
        48    1        8.496000000000       2.002540050000      10.011808000000
        49    1        8.496000000000       0.000000000000      12.015008000000
        50    1        9.912000000000       2.002540050000       0.000000000000
        51    1        9.912000000000       0.000000000000       2.002880000000
        52    1        9.912000000000       2.002540050000       4.005120000000
        53    1        9.912000000000       0.000000000000       6.008000000000
        54    1        9.912000000000       2.002540050000       8.009920000000
        55    1        9.912000000000       0.000000000000      10.011808000000
        56    1        9.912000000000       2.002540050000      12.015008000000
        57    1        0.000000000000       4.004959950000       0.000000000000
        58    1        0.000000000000       6.007500000000       2.002880000000
        59    1        0.000000000000       4.004959950000       4.005120000000
        60    1        0.000000000000       6.007500000000       6.008000000000
        61    1        0.000000000000       4.004959950000       8.009920000000
        62    1       11.328000000000       6.007500000000      10.011808000000
        63    1        0.000000000000       4.004959950000      12.015008000000
        64    1        1.416000000000       6.007500000000       0.000000000000
        65    1        1.416000000000       4.004959950000       2.002880000000
        66    1        1.416000000000       6.007500000000       4.005120000000
        67    1        1.416000000000       4.004959950000       6.008000000000
        68    1        1.416000000000       6.007500000000       8.009920000000
        69    1        1.416000000000       4.004959950000      10.011808000000
        70    1        1.416000000000       6.007500000000      12.015008000000
        71    1        2.832000000000       4.004959950000       0.000000000000
        72    1        2.832000000000       6.007500000000       2.002880000000
        73    1        2.832000000000       4.004959950000       4.005120000000
        74    1        2.832000000000       6.007500000000       6.008000000000
        75    1        2.832000000000       4.004959950000       8.009920000000
        76    1        2.832000000000       6.007500000000      10.011808000000
        77    1        2.832000000000       4.004959950000      12.015008000000
        78    1        4.248000000000       6.007500000000       0.000000000000
        79    1        4.248000000000       4.004959950000       2.002880000000
        80    1        4.248000000000       6.007500000000       4.005120000000
        81    1        4.248000000000       4.004959950000       6.008000000000
        82    1        4.248000000000       6.007500000000       8.009920000000
        83    1        4.248000000000       4.004959950000      10.011808000000
        84    1        4.248000000000       6.007500000000      12.015008000000
        85    1        5.664000000000       4.004959950000       0.000000000000
        86    1        5.664000000000       6.007500000000       2.002880000000
        87    1        5.664000000000       4.004959950000       4.005120000000
        88    1        5.664000000000       6.007500000000       6.008000000000
        89    1        5.664000000000       4.004959950000       8.009920000000
        90    1        5.664000000000       6.007500000000      10.011808000000
        91    1        5.664000000000       4.004959950000      12.015008000000
        92    1        7.080000000000       6.007500000000       0.000000000000
        93    1        7.080000000000       4.004959950000       2.002880000000
        94    1        7.080000000000       6.007500000000       4.005120000000
        95    1        7.080000000000       4.004959950000       6.008000000000
        96    1        7.080000000000       6.007500000000       8.009920000000
        97    1        7.080000000000       4.004959950000      10.011808000000
        98    1        7.080000000000       6.007500000000      12.015008000000
        99    1        8.496000000000       4.004959950000       0.000000000000
       100    1        8.496000000000       6.007500000000       2.002880000000
       101    1        8.496000000000       4.004959950000       4.005120000000
       102    1        8.496000000000       6.007500000000       6.008000000000
       103    1        8.496000000000       4.004959950000       8.009920000000
       104    1        8.496000000000       6.007500000000      10.011808000000
       105    1        8.496000000000       4.004959950000      12.015008000000
       106    1        9.912000000000       6.007500000000       0.000000000000
       107    1        9.912000000000       4.004959950000       2.002880000000
       108    1        9.912000000000       6.007500000000       4.005120000000
       109    1        9.912000000000       4.004959950000       6.008000000000
       110    1        9.912000000000       6.007500000000       8.009920000000
       111    1        9.912000000000       4.004959950000      10.011808000000
       112    1        9.912000000000       6.007500000000      12.015008000000
       113    1       11.328000000000       8.010040050000       0.000000000000
       114    1        0.000000000000      10.012495995000       2.002880000000
       115    1       11.328000000000       8.010040050000       4.005120000000
       116    1        0.000000000000      10.012495995000       6.008000000000
       117    1       11.328000000000       8.010040050000       8.009920000000
       118    1        0.000000000000      10.012495995000      10.011808000000
       119    1        0.000000000000       8.010040050000      12.015008000000
       120    1        1.416000000000      10.012495995000       0.000000000000
       121    1        1.416000000000       8.010040050000       2.002880000000
       122    1        1.416000000000      10.012495995000       4.005120000000
       123    1        1.416000000000       8.010040050000       6.008000000000
       124    1        1.416000000000      10.012495995000       8.009920000000
       125    1        1.416000000000       8.010040050000      10.011808000000
       126    1        1.416000000000      10.012495995000      12.015008000000
       127    1        2.832000000000       8.010040050000       0.000000000000
       128    1        2.832000000000      10.012495995000       2.002880000000
       129    1        2.832000000000       8.010040050000       4.005120000000
       130    1        2.832000000000      10.012495995000       6.008000000000
       131    1        2.832000000000       8.010040050000       8.009920000000
       132    1        2.832000000000      10.012495995000      10.011808000000
       133    1        2.832000000000       8.010040050000      12.015008000000
       134    1        4.248000000000      10.012495995000       0.000000000000
       135    1        4.248000000000       8.010040050000       2.002880000000
       136    1        4.248000000000      10.012495995000       4.005120000000
       137    1        4.248000000000       8.010040050000       6.008000000000
       138    1        4.248000000000      10.012495995000       8.009920000000
       139    1        4.248000000000       8.010040050000      10.011808000000
       140    1        4.248000000000      10.012495995000      12.015008000000
       141    1        5.664000000000       8.010040050000       0.000000000000
       142    1        5.664000000000      10.012495995000       2.002880000000
       143    1        5.664000000000       8.010040050000       4.005120000000
       144    1        5.664000000000      10.012495995000       6.008000000000
       145    1        5.664000000000       8.010040050000       8.009920000000
       146    1        5.664000000000      10.012495995000      10.011808000000
       147    1        5.664000000000       8.010040050000      12.015008000000
       148    1        7.080000000000      10.012495995000       0.000000000000
       149    1        7.080000000000       8.010040050000       2.002880000000
       150    1        7.080000000000      10.012495995000       4.005120000000
       151    1        7.080000000000       8.010040050000       6.008000000000
       152    1        7.080000000000      10.012495995000       8.009920000000
       153    1        7.080000000000       8.010040050000      10.011808000000
       154    1        7.080000000000      10.012495995000      12.015008000000
       155    1        8.496000000000       8.010040050000       0.000000000000
       156    1        8.496000000000      10.012495995000       2.002880000000
       157    1        8.496000000000       8.010040050000       4.005120000000
       158    1        8.496000000000      10.012495995000       6.008000000000
       159    1        8.496000000000       8.010040050000       8.009920000000
       160    1        8.496000000000      10.012495995000      10.011808000000
       161    1        8.496000000000       8.010040050000      12.015008000000
       162    1        9.912000000000      10.012495995000       0.000000000000
       163    1        9.912000000000       8.010040050000       2.002880000000
       164    1        9.912000000000      10.012495995000       4.005120000000
       165    1        9.912000000000       8.010040050000       6.008000000000
       166    1        9.912000000000      10.012495995000       8.009920000000
       167    1        9.912000000000       8.010040050000      10.011808000000
       168    1        9.912000000000      10.012495995000      12.015008000000
       169    2        1.454934336000      10.454395680000      15.539008000000
       170    2        9.310936320000       2.881905885000      15.048000000000
       171    2        6.130804224000      11.580297300000      15.372096000000
       172    2        3.516754944000       7.749566865000      17.380800000000
       173    2        5.263170048000       0.791932680000      22.740704000000
       174    2        0.753130752000       0.220811670000      23.320384000000
       175    2       10.476904704000       6.402036555000      19.193312000000
       176    2       10.246799040000       1.756689120000      21.103904000000
       177    2        2.216175936000       4.295254365000      19.750016000000
       178    2        6.914531904000      11.573196435000      17.911200000000
       179    2        0.832483392000       3.610303245000      22.010592000000
       180    2       10.915196352000       2.157485490000      16.951904000000
       181    2        7.065998592000       9.883274670000      24.863296000000
       182    2        1.893022080000       0.577597095000      16.613184000000
       183    2        5.202350016000       1.842764580000      18.464192000000
       184    2        5.704814784000       7.155365040000      19.047808000000
       185    2        2.682957504000       1.470215475000      19.179392000000
       186    2        3.154655424000       8.366633235000      25.113088000000
       187    2        8.955984768000       6.269835510000      23.566304000000
       188    2        1.671106560000       7.717438755000      21.558208000000
       189    2        9.491017536000       8.916607845000      24.106592000000
       190    2        5.583491904000       4.091059440000      23.116896000000
       191    2        6.914373312000       4.396684995000      15.288992000000
       192    2        9.697651584000      11.725702830000      17.837696000000
       193    2        4.992034368000       9.017569890000      15.479104000000
       194    2        4.764794688000       3.525825780000      16.499712000000
       195    2        7.916844672000       5.397558525000      18.575296000000
       196    2        6.800356992000       3.197744190000      25.366400000000
       197    2        4.589029440000      10.543595040000      21.514400000000
       198    2        9.130368000000       3.611048175000      23.828992000000
       199    2        3.005646912000       3.757907520000      23.699488000000
       200    2        1.911543360000      11.621304495000      21.050592000000
       201    2        1.186245504000       4.963312395000      15.286912000000
       202    2        5.292588864000       8.926075665000      23.467296000000
       203    2        9.224888832000       8.317131435000      15.137600000000
       204    2        1.084723968000       8.220783150000      18.619008000000
       205    2       10.982303424000       9.497160630000      16.870208000000
       206    2       10.841904192000      11.367896130000      20.059104000000
       207    2        6.464107968000       9.620158185000      19.858208000000
       208    2        4.095400512000       1.218465180000      15.321984000000
       209    2        3.667496640000       5.971202685000      15.149696000000
       210    2        8.395973760000       0.147928680000      14.173408000000
       211    2       10.325596608000       5.989705785000      14.141600000000
       212    2        9.468044352000       1.066739760000      23.661088000000
       213    2        0.500516352000       4.403773845000      17.784192000000
       214    2        2.504190336000       5.611954185000      26.036000000000
       215    2       10.886004096000       5.858814375000      21.799808000000
       216    2        1.471507200000       3.547308600000      13.307712000000
       217    2        7.046117952000       7.284586365000      16.212384000000
       218    2        4.001117568000       6.233502150000      20.664000000000
       219    2        0.933733056000       9.470379195000      23.664800000000
       220    2        6.823987200000       0.334713870000      24.638592000000
       221    2        8.900976000000       9.241409340000      21.391200000000
       222    2        3.161928000000       1.066547520000      24.488192000000
       223    2        3.260255040000      11.045005020000      26.338400000000
       224    2        6.697079616000       6.797257965000      22.341600000000
       225    3        1.342300032000      10.901497860000      14.625088000000
       226    3        9.557796096000       2.965374090000      14.073888000000
       227    3        8.832226368000       0.512944380000      24.151296000000
       228    3        8.390989440000       3.551321610000      24.431200000000
       229    3       11.190704640000       0.577404855000      23.568800000000
       230    3        1.070484672000      11.334602565000      20.617504000000
       231    3        9.544055232000       6.110276310000      18.953408000000
       232    3       10.649600064000       6.094248300000      20.148512000000
       233    3       10.354902144000       0.861235200000      20.755808000000
       234    3        5.038218624000       2.600274285000      17.806400000000
       235    3        1.688098560000       4.525870275000      18.912288000000
       236    3        2.437003968000       3.390536880000      19.572800000000
       237    3        6.541987968000       0.377463240000      18.309696000000
       238    3        6.490592832000      11.538701370000      16.964192000000
       239    3        1.306299648000       3.736592910000      21.068800000000
       240    3        0.210032448000       2.918395440000      21.793504000000
       241    3        0.348891072000       1.571610060000      16.617600000000
       242    3       10.382100672000       2.385025560000      16.136608000000
       243    3        6.205331136000       9.570752505000      24.185312000000
       244    3        7.082775360000      10.896799995000      24.933888000000
       245    3        2.689437120000       0.881840925000      16.009184000000
       246    3        1.647068544000      11.253501315000      16.179712000000
       247    3        2.137536960000       0.938804040000      17.483712000000
       248    3        5.856938496000       2.238286365000      19.112416000000
       249    3        5.937956352000       8.080604145000      19.280416000000
       250    3        9.426549888000       2.198925225000      20.718816000000
       251    3        2.402612160000       5.048042175000      26.823296000000
       252    3        3.657845184000       1.536249915000      18.983104000000
       253    3        2.313834624000       8.581809870000      24.645408000000
       254    3        2.865644160000       7.609015395000      25.673984000000
       255    3        9.354537792000       7.903322820000      24.277888000000
       256    3        8.049495552000       6.338296980000      23.113184000000
       257    3        1.050683328000       6.993474930000      21.765312000000
       258    3        1.418435520000       7.996667355000      20.619712000000
       259    3       10.503298944000       9.113918175000      24.115392000000
       260    3        7.969112064000       9.485229735000      24.564288000000
       261    3        6.896644992000       4.416089220000      14.304000000000
       262    3        6.915381504000       5.384858670000      15.569216000000
       263    3        9.935562240000       0.632481615000      17.539712000000
       264    3        8.723953344000      11.675299905000      17.713088000000
       265    3        5.758724736000       8.366885550000      15.760704000000
       266    3        4.856993280000       8.679035250000      14.541984000000
       267    3        4.123901760000       4.112265915000      15.974816000000
       268    3        5.650882176000       3.825011295000      15.992992000000
       269    3        7.762262784000       4.772874645000      19.351488000000
       270    3        7.150528128000       6.012125775000      18.667296000000
       271    3        6.276504960000       3.473127990000      24.569600000000
       272    3        6.467789568000       3.727377405000      26.120512000000
       273    3        3.586014336000      10.568694375000      21.183904000000
       274    3        5.174902272000      10.234004535000      20.740608000000
       275    3        9.149489664000       5.316325110000      23.788288000000
       276    3        9.509312256000       2.681555760000      23.854816000000
       277    3        2.674937280000       2.910573675000      24.113504000000
       278    3        2.336377344000       3.899035710000      23.001088000000
       279    3        2.476074240000       0.823856535000      19.923296000000
       280    3        1.702077312000       0.076295250000      21.895008000000
       281    3        2.001272448000       5.531117265000      15.377792000000
       282    3        1.065726912000       4.694236470000      16.264992000000
       283    3        4.579944384000       8.630638830000      24.112288000000
       284    3        4.802256384000       9.494433225000      22.772896000000
       285    3        9.820583040000       8.927709705000      15.676512000000
       286    3        8.944180992000       8.874603405000      14.354688000000
       287    3        1.856704512000       7.823999790000      18.101792000000
       288    3        0.444635328000       7.470854910000      18.727392000000
       289    3        0.277502016000       8.940385530000      17.608704000000
       290    3       10.560199488000      10.322903520000      17.275616000000
       291    3       10.312897920000      10.675303470000      20.514112000000
       292    3       10.380401472000      11.567801700000      19.136288000000
       293    3        7.300329600000       9.597245580000      20.366112000000
       294    3        6.632385408000      10.334497995000      19.241088000000
       295    3        3.918377856000       6.698674890000      15.774304000000
       296    3        3.534358656000       6.460117065000      14.208000000000
       297    3        7.585421376000      11.846994255000      14.666112000000
       298    3        8.730625536000       1.010557620000      14.489600000000
       299    3        1.419103872000       3.900429450000      14.268288000000
       300    3       11.209996224000       5.583370500000      14.447200000000
       301    3        0.037801536000       5.164311330000      18.300608000000
       302    3       10.192300032000       6.100844535000      22.471296000000
       303    3        2.793643392000       4.996257525000      25.304416000000
       304    3        8.992766784000       1.141509105000      22.796800000000
       305    3        1.419409728000       0.592507710000      23.906496000000
       306    3        0.047396352000       5.059852920000      22.083200000000
       307    3        1.161040704000       9.058192605000      22.776096000000
       308    3        6.472230144000       0.976110615000      25.256704000000
       309    3        9.153975552000       9.272263860000      22.336704000000
       310    3        9.010404480000       8.299265130000      21.135104000000
       311    3        0.996648768000      10.478005155000      23.611584000000
       312    3        3.981871296000       1.189497015000      23.982208000000
       313    3        3.290285568000       0.410023890000      25.244800000000
       314    3        3.419957184000      10.136598930000      26.053984000000
       315    3        6.278306112000       7.580924325000      22.852704000000
       316    3        6.090114048000       6.028574310000      22.393504000000
       317    3        8.415582528000       3.350430810000      15.150400000000
       318    3        5.345014848000       0.203810445000      15.395488000000
       319    3        5.726009472000      10.706794785000      15.298592000000
       320    3        3.544338624000       5.399733240000      20.383104000000
       321    3        3.432814464000       6.712816545000      21.309312000000
       322    3        3.872057664000       1.294508115000      14.360288000000
       323    3        4.386994560000       2.150120295000      15.597888000000
       324    3       11.256101184000       3.631437630000      17.626016000000
       325    3        7.859876160000       7.623169065000      15.709888000000
       326    3        7.387147392000       7.436275740000      17.123392000000
       327    3       10.136101824000       6.881374980000      14.611200000000
       328    3        5.587705920000       1.624403970000      22.356608000000
       329    3        4.961324160000       0.065698020000      22.107488000000
       330    3        3.932685120000       8.427284955000      16.797088000000
       331    3        4.229138880000       7.425029700000      18.032096000000
       332    3        3.760952640000      11.234000970000      27.153088000000
       333    3        4.579513920000       3.994855335000      23.088992000000
       334    3        6.034029120000       3.726344115000      22.319712000000
       335    3        0.536935872000       9.944707365000      15.960704000000
       336    3        6.266966784000       0.502058790000      23.793408000000
       337    3        1.416000000000      12.015000000000      13.000000000000
       338    3        4.949543040000       6.804935550000      19.574688000000
       339    4        7.064593920000       2.743745400000      20.759008000000
