LAMMPS (2 Aug 2023)
OMP_NUM_THREADS environment is not set. Defaulting to 1 thread. (src/comm.cpp:98)
  using 1 OpenMP thread(s) per MPI task
Loaded 1 plugins from /work/home/baoergen22b/apprepo/deepmd/v2.2.9-dtk23.10/app/lib/deepmd_lmp
Reading data file ...
  orthogonal box = (0 0 0) to (11.328 12.015 32)
  1 by 1 by 4 MPI processor grid
  reading atoms ...
  338 atoms
  read_data CPU = 0.065 seconds
Summary of lammps deepmd module ...
  >>> Info of deepmd-kit:
  installed to:       /work/home/wys974137909/shangcheng/deepmd-kit/20240715/deepmd-kit_v2.2.9/install
  source:             v2.2.9
  source branch:      HEAD
  source commit:      be43748
  source commit at:   2024-02-04 13:44:12 +0800
  support model ver.: 1.1 
  build variant:      rocm
  build with tf inc:  /work/home/wys974137909/shangcheng/miniconda3/envs/deepmd-kit-v2.2.9/lib/python3.8/site-packages/tensorflow/include;/work/home/wys974137909/shangcheng/miniconda3/envs/deepmd-kit-v2.2.9/lib/python3.8/site-packages/tensorflow/include
  build with tf lib:  /work/home/wys974137909/shangcheng/miniconda3/envs/deepmd-kit-v2.2.9/lib/python3.8/site-packages/tensorflow/lib/libtensorflow_cc.so
  set tf intra_op_parallelism_threads: 0
  set tf inter_op_parallelism_threads: 0
  >>> Info of lammps module:
  use deepmd-kit at:  /work/home/wys974137909/shangcheng/deepmd-kit/20240715/deepmd-kit_v2.2.9/install
  source:             v2.2.9
  source branch:      HEAD
  source commit:      be43748
  source commit at:   2024-02-04 13:44:12 +0800
  build float prec:   double
  build with tf inc:  /work/home/wys974137909/shangcheng/miniconda3/envs/deepmd-kit-v2.2.9/lib/python3.8/site-packages/tensorflow/include;/work/home/wys974137909/shangcheng/miniconda3/envs/deepmd-kit-v2.2.9/lib/python3.8/site-packages/tensorflow/include
  build with tf lib:  /work/home/wys974137909/shangcheng/miniconda3/envs/deepmd-kit-v2.2.9/lib/python3.8/site-packages/tensorflow/lib/libtensorflow_cc.so
INVALID_ARGUMENT: Tensor spin_attr/ntypes_spin:0, specified in either feed_devices or fetch_devices was not found in the Graph
INVALID_ARGUMENT: Tensor spin_attr/ntypes_spin:0, specified in either feed_devices or fetch_devices was not found in the Graph
INVALID_ARGUMENT: Tensor spin_attr/ntypes_spin:0, specified in either feed_devices or fetch_devices was not found in the Graph
INVALID_ARGUMENT: Tensor spin_attr/ntypes_spin:0, specified in either feed_devices or fetch_devices was not found in the Graph
  >>> Info of model(s):
  using   1 model(s): graph-compress.pb 
  rcut in model:      6
  ntypes in model:    5
167 atoms in group fixed
171 atoms in group mobile

CITE-CITE-CITE-CITE-CITE-CITE-CITE-CITE-CITE-CITE-CITE-CITE-CITE

Your simulation uses code contributions which should be cited:
- GPU package (short-range, long-range and three-body potentials): doi:10.1016/j.cpc.2010.12.021, doi:10.1016/j.cpc.2011.10.012, doi:10.1016/j.cpc.2013.08.002, doi:10.1016/j.commatsci.2014.10.068, doi:10.1016/j.cpc.2016.10.020, doi:10.3233/APC200086
- USER-DEEPMD package:
The log file lists these citations in BibTeX format.

CITE-CITE-CITE-CITE-CITE-CITE-CITE-CITE-CITE-CITE-CITE-CITE-CITE

Generated 0 of 10 mixed pair_coeff terms from geometric mixing rule
Neighbor list info ...
  update: every = 1 steps, delay = 0 steps, check = yes
  max neighbors/atom: 2000, page size: 100000
  master list distance cutoff = 8
  ghost atom cutoff = 8
  binsize = 4, bins = 3 4 8
  1 neighbor lists, perpetual/occasional/extra = 1 0 0
  (1) pair deepmd, perpetual
      attributes: full, newton on
      pair build: full/bin/atomonly
      stencil: full/bin/3d
      bin: standard
Setting up Verlet run ...
  Unit style    : metal
  Current step  : 0
  Time step     : 0.0005
colvars: Creating proxy instance
colvars: ----------------------------------------------------------------------
colvars: Initializing the collective variables module, version 2023-05-01.
colvars: Please cite Fiorin et al, Mol Phys 2013:
colvars:   https://doi.org/10.1080/00268976.2013.813594
colvars: as well as all other papers listed below for individual features used.
colvars: This version was built with the C++11 standard or higher.
colvars: Using LAMMPS interface, version "2023-04-12".
colvars: ----------------------------------------------------------------------
colvars: Reading new configuration from file "pmf.in":
colvars: # units = "" [default]
colvars: # smp = on [default]
colvars: # colvarsTrajFrequency = 100 [default]
colvars: # colvarsRestartFrequency = 0 [default]
colvars: # scriptedColvarForces = off [default]
colvars: # scriptingAfterBiases = off [default]
colvars: ----------------------------------------------------------------------
colvars:   Initializing a new collective variable.
colvars:   # name = "cn_fe_fe"
colvars:   Initializing a new "coordNum" component.
colvars:     # name = "" [default]
colvars:     # componentCoeff = 1 [default]
colvars:     # componentExp = 1 [default]
colvars:     # period = 0 [default]
colvars:     # wrapAround = 0 [default]
colvars:     # forceNoPBC = off [default]
colvars:     # scalable = on [default]
colvars:       Initializing atom group "group1".
colvars:       # name = "" [default]
colvars:       # centerToOrigin = off [default]
colvars:       # centerToReference = off [default]
colvars:       # rotateToReference = off [default]
colvars:       # atomsOfGroup = "" [default]
colvars:       # indexGroup = "" [default]
colvars:       # psfSegID =  [default]
colvars:       # atomsFile = "" [default]
colvars:       # dummyAtom = ( 0 , 0 , 0 ) [default]
colvars:       # enableFitGradients = on [default]
colvars:       # printAtomIDs = off [default]
colvars:       Atom group "group1" defined with 1 atoms requested.
colvars:       Initializing atom group "group2".
colvars:       # name = "" [default]
colvars:       # centerToOrigin = off [default]
colvars:       # centerToReference = off [default]
colvars:       # rotateToReference = off [default]
colvars:       # atomsOfGroup = "" [default]
colvars:       # indexGroup = "" [default]
colvars:       # psfSegID =  [default]
colvars:       # atomsFile = "" [default]
colvars:       # dummyAtom = ( 0 , 0 , 0 ) [default]
colvars:       # enableFitGradients = on [default]
colvars:       # printAtomIDs = off [default]
colvars:       Atom group "group2" defined with 167 atoms requested.
colvars:     # cutoff = 2.5
colvars:     # cutoff3 = ( 4 , 4 , 4 ) [default]
colvars:     # expNumer = 6 [default]
colvars:     # expDenom = 12 [default]
colvars:     # group2CenterOnly = off [default]
colvars:     # tolerance = 0 [default]
colvars:   All components initialized.
colvars:   # timeStepFactor = 1 [default]
colvars:   # width = 0.2
colvars:   # lowerBoundary = 0
colvars:   # upperBoundary = 6
colvars:   # hardLowerBoundary = off [default]
colvars:   # hardUpperBoundary = off [default]
colvars:   # expandBoundaries = off [default]
colvars:   # extendedLagrangian = off [default]
colvars:   # outputValue = on [default]
colvars:   # outputVelocity = off [default]
colvars:   # outputTotalForce = off [default]
colvars:   # outputAppliedForce = off [default]
colvars:   # subtractAppliedForce = off [default]
colvars:   # runAve = off [default]
colvars:   # corrFunc = off [default]
colvars: ----------------------------------------------------------------------
colvars:   Initializing a new collective variable.
colvars:   # name = "cn_fe_o"
colvars:   Initializing a new "coordNum" component.
colvars:     # name = "" [default]
colvars:     # componentCoeff = 1 [default]
colvars:     # componentExp = 1 [default]
colvars:     # period = 0 [default]
colvars:     # wrapAround = 0 [default]
colvars:     # forceNoPBC = off [default]
colvars:     # scalable = on [default]
colvars:       Initializing atom group "group1".
colvars:       # name = "" [default]
colvars:       # centerToOrigin = off [default]
colvars:       # centerToReference = off [default]
colvars:       # rotateToReference = off [default]
colvars:       # atomsOfGroup = "" [default]
colvars:       # indexGroup = "" [default]
colvars:       # psfSegID =  [default]
colvars:       # atomsFile = "" [default]
colvars:       # dummyAtom = ( 0 , 0 , 0 ) [default]
colvars:       # enableFitGradients = on [default]
colvars:       # printAtomIDs = off [default]
colvars:       Atom group "group1" defined with 1 atoms requested.
colvars:       Initializing atom group "group2".
colvars:       # name = "" [default]
colvars:       # centerToOrigin = off [default]
colvars:       # centerToReference = off [default]
colvars:       # rotateToReference = off [default]
colvars:       # atomsOfGroup = "" [default]
colvars:       # indexGroup = "" [default]
colvars:       # psfSegID =  [default]
colvars:       # atomsFile = "" [default]
colvars:       # dummyAtom = ( 0 , 0 , 0 ) [default]
colvars:       # enableFitGradients = on [default]
colvars:       # printAtomIDs = off [default]
colvars:       Atom group "group2" defined with 56 atoms requested.
colvars:     # cutoff = 3
colvars:     # cutoff3 = ( 4 , 4 , 4 ) [default]
colvars:     # expNumer = 6 [default]
colvars:     # expDenom = 12 [default]
colvars:     # group2CenterOnly = off [default]
colvars:     # tolerance = 0 [default]
colvars:   All components initialized.
colvars:   # timeStepFactor = 1 [default]
colvars:   # width = 0.1
colvars:   # lowerBoundary = 0.5
colvars:   # upperBoundary = 7
colvars:   # hardLowerBoundary = off [default]
colvars:   # hardUpperBoundary = off [default]
colvars:   # expandBoundaries = off [default]
colvars:   # extendedLagrangian = off [default]
colvars:   # outputValue = on [default]
colvars:   # outputVelocity = off [default]
colvars:   # outputTotalForce = off [default]
colvars:   # outputAppliedForce = off [default]
colvars:   # subtractAppliedForce = off [default]
colvars:   # runAve = off [default]
colvars:   # corrFunc = off [default]
colvars: ----------------------------------------------------------------------
colvars: Collective variables initialized, 2 in total.
colvars: ----------------------------------------------------------------------
colvars:   Initializing a new "metadynamics" instance.
colvars:   # name = "meta2d"
colvars:   # colvars = { cn_fe_fe, cn_fe_o }
colvars:   # stepZeroData = off [default]
colvars:   # outputEnergy = off [default]
colvars:   # outputFreq = 0 [default]
colvars:   # timeStepFactor = 1 [default]
colvars:   # writeTISamples = off [default]
colvars:   # writeTIPMF = off [default]
colvars:   # hillWeight = 0.05
colvars:   # newHillFrequency = 300
colvars:   # gaussianSigmas =  [default]
colvars:   # hillWidth = 0.1
colvars:   Half-widths of the Gaussian hills (sigma's):
colvars:   cn_fe_fe: 0.01
colvars:   cn_fe_o: 0.005
colvars:   # multipleReplicas = off [default]
colvars:   # useGrids = on [default]
colvars:   Warning: gaussianSigmas is too narrow for the grid spacing along cn_fe_fe.
colvars:   Warning: gaussianSigmas is too narrow for the grid spacing along cn_fe_o.
colvars:   # gridsUpdateFrequency = 300 [default]
colvars:   # rebinGrids = off [default]
colvars:   # writeFreeEnergyFile = on [default]
colvars:   # keepHills = off [default]
colvars:   # keepFreeEnergyFiles = off [default]
colvars:   # writeHillsTrajectory = off [default]
colvars:   # wellTempered = off [default]
colvars:   # biasTemperature = 800
colvars:   # ebMeta = off [default]
colvars: ----------------------------------------------------------------------
colvars: Collective variables biases initialized, 1 in total.
colvars: ----------------------------------------------------------------------
colvars: Collective variables module (re)initialized.
colvars: ----------------------------------------------------------------------
colvars: Re-initialized atom group for variable "cn_fe_fe":0/0. 1 atoms: total mass = 55.845, total charge = 0.
colvars: Re-initialized atom group for variable "cn_fe_fe":0/1. 167 atoms: total mass = 9322.27, total charge = -6.01504e+305.
colvars: Re-initialized atom group for variable "cn_fe_o":0/0. 1 atoms: total mass = 55.845, total charge = 0.
colvars: Re-initialized atom group for variable "cn_fe_o":0/1. 56 atoms: total mass = 895.944, total charge = -nan.
colvars: The restart output state file will be "rest.colvars.state".
colvars: The final output state file will be "out.colvars.state".
Per MPI rank memory allocation (min/avg/max) = 3.139 | 3.164 | 3.181 Mbytes
   Step          Temp         c_mTemp         PotEng         KinEng         TotEng         Press     
         0   150.40208      298.15        -2337.9556      6.5516151     -2331.404      -12354.234    
        50   174.75435      346.42479     -2339.0148      7.6124162     -2331.4023     -10587.611    
       100   178.86315      354.56989     -2339.1999      7.7913983     -2331.4085     -13021.275    
       150   166.15314      329.37416     -2338.6562      7.2377417     -2331.4184     -12228.65     
       200   152.15777      301.63041     -2338.0477      6.6280943     -2331.4196     -7723.5776    
       250   149.77035      296.89769     -2337.9499      6.5240964     -2331.4258     -13627.48     
       300   168.02346      333.0818      -2338.7575      7.3192143     -2331.4383     -10070.995    
       350   162.63924      322.40838     -2338.3531      7.0846742     -2331.2684     -13979.905    
       400   158.80438      314.80633     -2338.1937      6.9176249     -2331.2761     -13914.894    
       450   171.96407      340.89348     -2338.7741      7.4908699     -2331.2832     -12588.553    
       500   165.3966       327.87444     -2338.4821      7.2047867     -2331.2773     -13600.017    
       550   154.8517       306.97073     -2338.0302      6.7454437     -2331.2847     -10787.296    
       600   158.76337      314.72502     -2338.2172      6.9158384     -2331.3013     -11422.844    
       650   169.27609      335.56495     -2338.686       7.3737797     -2331.3122     -12816.689    
       700   166.65332      330.3657      -2338.5872      7.25953       -2331.3277     -9940.5567    
       750   167.33264      331.71234     -2338.624       7.2891215     -2331.3349     -15283.471    
       800   159.37829      315.94402     -2338.2964      6.9426249     -2331.3537     -13879.536    
       850   161.98022      321.10197     -2338.4298      7.0559667     -2331.3739     -11076.85     
       900   158.15479      313.51862     -2338.2739      6.8893285     -2331.3846     -11556.354    
       950   150.77379      298.88686     -2337.9746      6.5678069     -2331.4067     -13825.6      
      1000   154.82414      306.91608     -2338.1664      6.7442429     -2331.4221     -14854.75     
      1050   155.39932      308.0563      -2338.2062      6.7692984     -2331.4369     -16607.72     
      1100   148.05686      293.50096     -2337.9019      6.449456      -2331.4525     -10933.245    
      1150   155.71317      308.67847     -2338.2459      6.78297       -2331.4629     -12290.954    
      1200   161.01121      319.18106     -2338.4872      7.0137562     -2331.4734     -12869        
      1250   153.26845      303.83217     -2338.1591      6.6764763     -2331.4826     -13297.529    
      1300   141.0512       279.61325     -2337.6456      6.1442844     -2331.5013     -12415.597    
      1350   159.89908      316.9764      -2338.4909      6.9653107     -2331.5256     -15098.6      
      1400   156.79863      310.83022     -2338.3723      6.830253      -2331.5421     -13992.501    
      1450   154.08946      305.45969     -2338.2675      6.7122399     -2331.5553     -11209.084    
      1500   140.84223      279.19901     -2337.7152      6.1351818     -2331.58       -13344.812    
      1550   152.55931      302.42639     -2338.244       6.6455854     -2331.5984     -10740.455    
      1600   150.38397      298.1141      -2338.1735      6.5508263     -2331.6227     -10370.822    
      1650   160.31707      317.80502     -2338.6326      6.9835189     -2331.6491     -13800.337    
      1700   155.00018      307.26507     -2338.4305      6.7519116     -2331.6786     -11201.154    
      1750   160.92304      319.00626     -2338.7131      7.0099152     -2331.7032     -11845.824    
      1800   159.38426      315.95585     -2338.6699      6.9428848     -2331.727      -11477.231    
      1850   144.21032      285.87575     -2337.708       6.2818979     -2331.4261     -9407.6973    
      1900   133.9131       265.46303     -2337.2801      5.8333442     -2331.4468     -10663.112    
      1950   146.92106      291.24939     -2337.8652      6.3999795     -2331.4652     -13227.509    
      2000   162.50482      322.14191     -2338.5677      7.0788188     -2331.4888     -14015.217    
      2050   183.38599      363.53575     -2339.5008      7.9884163     -2331.5124     -10856.793    
      2100   167.63728      332.31626     -2338.8345      7.3023922     -2331.5321     -11591.572    
      2150   187.88992      372.46413     -2339.7466      8.1846104     -2331.562      -11650.596    
      2200   188.85479      374.37685     -2339.8249      8.226641      -2331.5983     -10731.585    
      2250   179.41007      355.65408     -2339.4413      7.8152225     -2331.6261     -15080.12     
      2300   176.88598      350.65043     -2339.3716      7.7052714     -2331.6663     -11783.641    
      2350   185.70462      368.13209     -2339.8036      8.0894173     -2331.7142     -9347.0842    
      2400   173.23272      343.4084      -2339.2949      7.5461333     -2331.7487     -13925.357    
      2450   155.83428      308.91854     -2338.5672      6.7882455     -2331.7789     -11861.395    
      2500   170.91704      338.81789     -2339.2591      7.4452604     -2331.8138     -10239.875    
      2550   173.62871      344.19338     -2339.4163      7.5633826     -2331.8529     -12090.333    
      2600   166.79318      330.64296     -2339.1511      7.2656227     -2331.8855     -15102.718    
      2650   174.95592      346.82439     -2339.5497      7.6211971     -2331.9285     -11318.558    
      2700   177.87583      352.61268     -2339.7138      7.7483903     -2331.9654     -12186.346    
      2750   165.03842      327.16439     -2339.1924      7.1891839     -2332.0032     -10541.757    
      2800   172.11571      341.19409     -2339.5406      7.4974757     -2332.0431     -12080.322    
      2850   181.12455      359.05278     -2339.9779      7.8899065     -2332.088      -8062.6894    
      2900   162.11575      321.37063     -2339.1837      7.0618703     -2332.1218     -12798.899    
      2950   173.48175      343.90206     -2339.7158      7.5569811     -2332.1588     -10175.753    
      3000   160.48494      318.13778     -2339.1938      6.9908311     -2332.203      -12026.004    
      3050   162.0868       321.31324     -2339.3008      7.0606092     -2332.2402     -11475.042    
      3100   168.84562      334.7116      -2339.6308      7.3550279     -2332.2758     -13138.203    
      3150   173.79369      344.52043     -2339.8738      7.5705694     -2332.3032     -12534.664    
      3200   173.73549      344.40505     -2339.91        7.568034      -2332.342      -13541.005    
      3250   161.85163      320.84706     -2339.4168      7.0503654     -2332.3664     -12942.527    
      3300   177.27197      351.41562     -2340.1132      7.7220857     -2332.3911     -9257.7616    
      3350   177.53195      351.93099     -2340.1563      7.7334107     -2332.4229     -14195.109    
      3400   160.2976       317.76642     -2339.4304      6.9826707     -2332.4477     -14756.37     
      3450   154.57238      306.41702     -2339.2084      6.7332764     -2332.4751     -10833.153    
      3500   165.54895      328.17645     -2339.7148      7.211423      -2332.5033     -12282.186    
      3550   163.97194      325.05027     -2339.6742      7.1427275     -2332.5315     -13588.68     
      3600   153.80892      304.90357     -2339.2495      6.7000196     -2332.5495     -13397.333    
      3650   159.66657      316.51549     -2339.5325      6.9551826     -2332.5773     -11643.067    
      3700   156.18347      309.61077     -2339.3975      6.8034565     -2332.594      -13486.02     
      3750   153.66161      304.61154     -2339.3074      6.6936024     -2332.6138     -11072.451    
      3800   156.45198      310.14304     -2339.4506      6.8151528     -2332.6354     -10744.05     
      3850   161.36622      319.8848      -2339.6819      7.0292205     -2332.6527     -12533.777    
      3900   165.4513       327.98287     -2339.8817      7.2071694     -2332.6745     -11719.179    
      3950   160.75347      318.67011     -2339.694       7.0025286     -2332.6915     -14246.356    
      4000   166.87607      330.80727     -2339.979       7.2692333     -2332.7098     -11947.743    
      4050   165.07549      327.23789     -2339.9216      7.1907989     -2332.7308     -15107.109    
      4100   168.14685      333.3264      -2340.0739      7.3245892     -2332.7493     -11371.206    
      4150   166.1985       329.46408     -2340.0069      7.2397177     -2332.7672     -11028.123    
      4200   169.48027      335.96971     -2340.1748      7.3826738     -2332.7921     -14852.133    
      4250   162.80884      322.74458     -2339.9019      7.092062      -2332.8098     -12366.617    
      4300   171.95425      340.87401     -2340.301       7.490442      -2332.8105     -13934.975    
      4350   151.16         299.65246     -2339.4046      6.5846305     -2332.82       -14986.501    
      4400   161.26042      319.67507     -2339.8589      7.0246118     -2332.8343     -11885.589    
      4450   161.22751      319.60983     -2339.8814      7.0231781     -2332.8582     -9298.4122    
      4500   166.76713      330.59131     -2340.1357      7.2644877     -2332.8712     -18701.966    
      4550   168.067        333.16811     -2340.2121      7.3211109     -2332.891      -15008.113    
      4600   189.27664      375.21311     -2341.1648      8.2450171     -2332.9198     -10812.46     
      4650   163.41699      323.95015     -2340.0494      7.1185535     -2332.9308     -11432.44     
      4700   168.21311      333.45775     -2340.2846      7.3274754     -2332.9571     -11064.694    
      4750   166.22983      329.52619     -2340.2187      7.2410826     -2332.9776     -11990.874    
      4800   164.27944      325.65983     -2340.1532      7.1561222     -2332.997      -12916.218    
      4850   161.90117      320.94526     -2340.0722      7.0525233     -2333.0197     -11963.693    
      4900   175.9082       348.71213     -2340.7048      7.6626787     -2333.0421     -11063.933    
      4950   163.69446      324.5002      -2340.1943      7.1306403     -2333.0637     -12364.52     
      5000   166.0948       329.25852     -2340.3302      7.2352007     -2333.095      -8861.7517    
      5050   167.28616      331.62021     -2340.4016      7.2870971     -2333.1145     -13367.559    
      5100   178.62174      354.09134     -2340.9196      7.7808826     -2333.1387     -12223.174    
      5150   170.3299       337.65398     -2340.5805      7.4196844     -2333.1608     -12439.26     
      5200   154.19327      305.66548     -2339.8992      6.7167619     -2333.1824     -12935.362    
      5250   154.34109      305.95851     -2339.9361      6.723201      -2333.2129     -12811.459    
      5300   172.31313      341.58544     -2340.7456      7.5060752     -2333.2395     -11232.163    
      5350   156.42216      310.08393     -2340.0765      6.813854      -2333.2627     -15426.101    
      5400   161.3499       319.85246     -2340.3178      7.0285097     -2333.2893     -11612.398    
      5450   170.13967      337.27688     -2340.7336      7.4113979     -2333.3222     -13274.467    
      5500   165.43283      327.94626     -2340.5533      7.2063648     -2333.347      -11526.442    
      5550   165.56359      328.20547     -2340.5823      7.2120606     -2333.3702     -9506.7565    
      5600   166.31803      329.70104     -2340.6505      7.2449247     -2333.4055     -12566.087    
      5650   165.32165      327.72586     -2340.6271      7.2015216     -2333.4256     -9666.0883    
      5700   170.11327      337.22454     -2340.8697      7.4102478     -2333.4595     -14218.424    
      5750   165.50102      328.08144     -2340.6345      7.2093353     -2333.4251     -13092.804    
      5800   164.9666       327.02203     -2340.6453      7.1860555     -2333.4592     -9685.4163    
      5850   160.54905      318.26488     -2340.4893      6.9936241     -2333.4957     -9868.7431    
      5900   160.98606      319.13119     -2340.5308      7.0126605     -2333.5181     -12921.033    
      5950   172.40944      341.77636     -2341.0545      7.5102705     -2333.5442     -14485.768    
      6000   168.43112      333.88993     -2340.8711      7.3369723     -2333.5341     -10860.584    
      6050   165.4296       327.93985     -2340.6153      7.2062239     -2333.4091     -15852.725    
      6100   152.26825      301.84941     -2340.0767      6.6329067     -2333.4437     -16044.567    
      6150   168.09704      333.22765     -2340.8055      7.3224193     -2333.4831     -11762.891    
      6200   167.73373      332.50746     -2340.8301      7.3065936     -2333.5236     -15429.903    
      6250   168.47936      333.98555     -2340.8902      7.3390735     -2333.5512     -12167.032    
      6300   159.23275      315.65552     -2340.5129      6.9362853     -2333.5767     -12011.71     
      6350   166.35079      329.76597     -2340.8944      7.2463515     -2333.6481     -17421.901    
      6400   157.4565       312.13435     -2340.5873      6.8589102     -2333.7284     -10545.784    
      6450   157.57884      312.37687     -2340.6224      6.8642395     -2333.7582     -11769.844    
      6500   151.00307      299.34139     -2340.3665      6.5777949     -2333.7887     -15762.549    
      6550   159.28501      315.7591      -2340.7655      6.9385615     -2333.8269     -10198.626    
      6600   175.10673      347.12334     -2341.4805      7.6277662     -2333.8527     -12566.857    
      6650   151.20385      299.7394      -2340.1948      6.5865408     -2333.6083     -14816.015    
      6700   160.58486      318.33587     -2340.6343      6.9951838     -2333.6391     -11218.153    
      6750   162.8444       322.81507     -2340.7576      7.093611      -2333.664      -11985.342    
      6800   158.3199       313.84591     -2340.5767      6.8965206     -2333.6801     -13665.375    
      6850   174.40403      345.73034     -2341.314       7.5971561     -2333.7169     -9629.4929    
      6900   166.40865      329.88067     -2340.658       7.2488719     -2333.4092     -16428.332    
      6950   178.4237       353.69875     -2341.1665      7.7722559     -2333.3943     -12710.439    
      7000   160.70156      318.56721     -2340.4215      7.0002674     -2333.4213     -12056.921    
      7050   182.6277       362.03256     -2341.4123      7.9553849     -2333.4569     -9653.8795    
      7100   169.47746      335.96414     -2340.8772      7.3825514     -2333.4947     -11391.799    
      7150   171.69186      340.35387     -2341.0029      7.4790124     -2333.5239     -10281.101    
      7200   175.60073      348.10262     -2341.2167      7.6492851     -2333.5674     -11736.365    
      7250   167.58154      332.20575     -2340.7152      7.2999639     -2333.4152     -12346.534    
      7300   167.74942      332.53856     -2340.5465      7.307277      -2333.2392     -8469.3104    
      7350   166.10771      329.28411     -2340.5071      7.235763      -2333.2713     -11702.953    
      7400   163.33941      323.79635     -2340.426       7.1151738     -2333.3108     -14994.065    
      7450   168.51011      334.04652     -2340.6786      7.3404132     -2333.3382     -12223.16     
      7500   160.57205      318.31048     -2340.3636      6.9946261     -2333.369      -9882.3496    
      7550   167.15679      331.36375     -2340.7774      7.2814615     -2333.4959     -13784.222    
      7600   169.47541      335.96007     -2340.9045      7.3824621     -2333.522      -13915.527    
      7650   166.2192       329.50513     -2340.7994      7.2406197     -2333.5588     -9596.408     
      7700   160.90169      318.96393     -2340.6029      7.0089851     -2333.5939     -12729.407    
      7750   155.42757      308.1123      -2340.3882      6.7705288     -2333.6176     -11539.159    
      7800   159.8864       316.95128     -2340.6242      6.9647586     -2333.6595     -10571.872    
      7850   164.80248      326.69669     -2340.8591      7.1789064     -2333.6802     -12593.424    
      7900   152.57808      302.46361     -2340.3595      6.6464033     -2333.7131     -11318.898    
      7950   165.79628      328.66674     -2340.9638      7.2221969     -2333.7416     -10684.458    
      8000   167.96571      332.96731     -2341.0957      7.3166986     -2333.779      -12535.282    
      8050   161.70571      320.55779     -2340.8588      7.0440088     -2333.8148     -11548.554    
      8100   156.70401      310.64266     -2340.6688      6.8261315     -2333.8427     -11774.145    
      8150   157.07153      311.37121     -2340.7045      6.8421408     -2333.8624     -12818.084    
      8200   161.91547      320.9736      -2340.9423      7.0531461     -2333.8891     -11416.78     
      8250   169.76162      336.52744     -2341.3174      7.3949296     -2333.9225     -12059.053    
      8300   164.89154      326.87324     -2341.1285      7.182786      -2333.9457     -12726.808    
      8350   154.84479      306.95703     -2340.7195      6.7451427     -2333.9744     -9088.1547    
      8400   162.67033      322.47001     -2341.0909      7.0860284     -2334.0049     -14696.094    
      8450   169.58856      336.18438     -2341.4229      7.3873911     -2334.0356     -11986.861    
      8500   154.64355      306.5581      -2340.664       6.7363766     -2333.9276     -9482.7266    
      8550   175.56085      348.02357     -2341.6223      7.6475482     -2333.9748     -10524.854    
      8600   165.66408      328.40467     -2341.2152      7.216438      -2333.9987     -11500.136    
      8650   159.24812      315.68597     -2340.9646      6.9369545     -2334.0276     -13936.062    
      8700   173.02384      342.99432     -2341.6078      7.5370342     -2334.0708     -11734.33     
      8750   172.55894      342.07272     -2341.4437      7.5167828     -2333.9269     -13197.464    
      8800   155.38893      308.0357      -2340.6829      6.7688458     -2333.914      -13745.176    
      8850   165.54607      328.17074     -2341.1477      7.2112976     -2333.9364     -10345.827    
      8900   170.06673      337.13228     -2341.3742      7.4082205     -2333.966      -13681.536    
      8950   156.2427       309.72818     -2340.7981      6.8060367     -2333.9921     -14235.415    
      9000   153.08358      303.46568     -2340.6862      6.6684231     -2334.0177     -10118.394    
      9050   164.7786       326.64934     -2341.236       7.177866      -2334.0581     -10411.775    
      9100   162.54652      322.22458     -2341.169       7.0806353     -2334.0884     -12171.233    
      9150   157.24927      311.72355     -2340.7996      6.8498834     -2333.9497     -12738.175    
      9200   173.08199      343.1096      -2341.5282      7.5395674     -2333.9886     -13414.568    
      9250   169.61227      336.23138     -2341.414       7.3884239     -2334.0256     -11997.713    
      9300   159.46685      316.11959     -2341.0045      6.9464828     -2334.0581     -12592.829    
      9350   153.97775      305.23825     -2340.6565      6.7073739     -2333.9492     -11702.356    
      9400   156.68354      310.60209     -2340.7985      6.82524       -2333.9732     -10442.449    
      9450   160.27452      317.72067     -2340.979       6.9816654     -2333.9973     -12080.56     
      9500   156.78883      310.81079     -2340.8895      6.8298262     -2334.0597     -13052.771    
      9550   167.0628       331.17744     -2341.4208      7.2773675     -2334.1434     -11965.865    
      9600   154.34493      305.96612     -2340.893       6.7233683     -2334.1696     -10062.7      
      9650   146.83891      291.08655     -2340.6054      6.3964012     -2334.209      -10609.38     
      9700   163.83964      324.788       -2341.3851      7.1369645     -2334.2481     -12825.661    
      9750   152.02638      301.36994     -2340.8939      6.6223709     -2334.2715     -9852.9006    
      9800   157.51527      312.25086     -2341.1675      6.8614706     -2334.3061     -11219.988    
      9850   161.50916      320.16815     -2341.365       7.0354468     -2334.3295     -14267.859    
      9900   152.77991      302.86371     -2340.933       6.6551952     -2334.2778     -10431.994    
      9950   173.66914      344.27352     -2341.8322      7.5651438     -2334.2671     -9470.9555    
     10000   170.88437      338.75314     -2341.6427      7.4438376     -2334.1989     -10637.749    
     10050   163.85709      324.82258     -2341.374       7.1377244     -2334.2363     -12398.376    
     10100   165.81749      328.7088      -2341.4842      7.2231209     -2334.2611     -13321.819    
     10150   166.71407      330.48613     -2341.5481      7.2621764     -2334.2859     -9541.3481    
     10200   152.34915      302.00979     -2340.9373      6.6364309     -2334.3009     -13307.343    
     10250   171.05509      339.09156     -2341.7908      7.451274      -2334.3395     -9007.652     
     10300   155.30107      307.86153     -2341.1364      6.7650185     -2334.3713     -7630.6782    
     10350   161.57855      320.30571     -2341.4376      7.0384696     -2334.3991     -10291.187    
     10400   156.26606      309.77448     -2341.2315      6.8070541     -2334.4244     -10995.63     
     10450   168.46687      333.9608      -2341.7948      7.3385296     -2334.4563     -10932.615    
     10500   166.79151      330.63963     -2341.7483      7.2655496     -2334.4827     -11238.671    
     10550   156.77912      310.79155     -2341.3292      6.8294034     -2334.4998     -10405.414    
     10600   161.52148      320.19258     -2341.5561      7.0359836     -2334.5201     -9075.3825    
     10650   153.79458      304.87515     -2341.1169      6.699395      -2334.4175     -13224.417    
     10700   152.32608      301.96405     -2341.0763      6.6354258     -2334.4409     -12951.36     
     10750   155.33364      307.9261      -2341.2301      6.7664372     -2334.4637     -8978.5221    
     10800   159.26332      315.71611     -2341.4985      6.9376166     -2334.5609     -11928.801    
     10850   162.67325      322.4758      -2341.6649      7.0861558     -2334.5787     -13956.137    
     10900   166.41749      329.89819     -2341.8678      7.249257      -2334.6185     -13370.974    
     10950   153.70658      304.70069     -2341.3392      6.6955614     -2334.6437     -13709.617    
     11000   166.33701      329.73867     -2341.9247      7.2457516     -2334.6789     -9776.7152    
     11050   170.41287      337.81846     -2342.1282      7.4232988     -2334.7049     -10277.811    
     11100   153.21646      303.72909     -2341.4175      6.6742113     -2334.7433     -11535.424    
     11150   181.68112      360.1561      -2342.6831      7.914151      -2334.7689     -13755.296    
     11200   161.41611      319.9837      -2341.8374      7.0313938     -2334.806      -9951.8092    
     11250   166.08237      329.23388     -2342.0305      7.2346593     -2334.7959     -11785.098    
     11300   172.35556      341.66956     -2342.1531      7.5079237     -2334.6452     -13106.909    
     11350   154.64892      306.56874     -2341.4172      6.7366104     -2334.6806     -10958.75     
     11400   164.38445      325.86799     -2341.8687      7.1606964     -2334.708      -11009.905    
     11450   162.27804      321.69235     -2341.8203      7.06894       -2334.7514     -11705.149    
     11500   155.54416      308.34342     -2341.5473      6.7756076     -2334.7717     -12601.397    
     11550   158.96803      315.13073     -2341.7951      6.9247536     -2334.8703     -10959.994    
     11600   170.89193      338.76813     -2342.3347      7.444167      -2334.8905     -7591.3234    
     11650   153.18348      303.66372     -2341.5921      6.6727749     -2334.9193     -9544.3978    
     11700   168.3873       333.80307     -2342.2912      7.3350636     -2334.9562     -11714.838    
     11750   175.85143      348.5996      -2342.6528      7.6602059     -2334.9926     -13586.075    
     11800   147.0547       291.51431     -2341.4259      6.4058009     -2335.0201     -12567.971    
     11850   170.59011      338.1698      -2342.4832      7.4310193     -2335.0522     -13129.516    
     11900   155.68649      308.62557     -2341.8693      6.7818077     -2335.0875     -10512.795    
     11950   151.99149      301.30078     -2341.7475      6.6208511     -2335.1266     -11288.583    
     12000   162.29892      321.73374     -2342.2179      7.0698495     -2335.148      -12950.875    
     12050   149.32938      296.02354     -2341.6751      6.5048877     -2335.1702     -10783.723    
     12100   145.68005      288.78928     -2341.5401      6.3459205     -2335.1942     -13478.074    
     12150   161.39193      319.93577     -2342.2558      7.0303405     -2335.2254     -12909.462    
     12200   156.83318      310.89871     -2342.0808      6.8317582     -2335.249      -12671.468    
     12250   151.33552      300.00042     -2341.8672      6.5922767     -2335.2749     -14569.617    
     12300   155.96189      309.17152     -2342.096       6.7938044     -2335.3022     -12835.097    
     12350   152.01708      301.35151     -2341.9481      6.6219658     -2335.3261     -12988.571    
     12400   149.00252      295.37558     -2341.8397      6.4906492     -2335.3491     -13465.65     
     12450   147.42765      292.25364     -2341.7985      6.4220472     -2335.3765     -10103.048    
     12500   137.43483      272.44434     -2341.3875      5.9867532     -2335.4007     -14526.033    
     12550   146.52612      290.46649     -2341.8038      6.382776      -2335.421      -13449.687    
     12600   148.90795      295.18812     -2341.9379      6.48653       -2335.4514     -11185.288    
     12650   145.03841      287.51732     -2341.7895      6.3179701     -2335.4716     -14338.295    
     12700   146.50098      290.41666     -2341.8711      6.3816809     -2335.4894     -11162.416    
     12750   151.64489      300.6137      -2342.1218      6.6057531     -2335.5161     -14204.943    
     12800   158.62983      314.4603      -2342.4397      6.9100213     -2335.5296     -10797.809    
     12850   161.93386      321.01006     -2342.6101      7.0539472     -2335.5561     -10722.988    
     12900   151.70054      300.72401     -2342.1815      6.6081769     -2335.5734     -10342.953    
     12950   161.11619      319.38916     -2342.6145      7.0183291     -2335.5961     -11948.273    
     13000   163.7267       324.56411     -2342.7517      7.1320447     -2335.6197     -12914.848    
     13050   166.11086      329.29035     -2342.8831      7.2359002     -2335.6472     -11361.834    
     13100   161.78075      320.70655     -2342.5706      7.0472777     -2335.5233     -11686.93     
     13150   169.20147      335.41703     -2342.8728      7.3705292     -2335.5023     -11313.405    
     13200   159.21741      315.62509     -2342.3971      6.9356167     -2335.4614     -11122.07     
     13250   167.02429      331.1011      -2342.7692      7.2756899     -2335.4936     -8688.3422    
     13300   157.41319      312.04849     -2342.2621      6.8570237     -2335.4051     -12492.722    
     13350   168.3679       333.76461     -2342.7618      7.3342185     -2335.4276     -11383.732    
     13400   168.41892      333.86574     -2342.7819      7.3364408     -2335.4455     -8487.3131    
     13450   167.96057      332.95712     -2342.8487      7.3164747     -2335.5322     -13745.942    
     13500   154.20979      305.69824     -2342.2665      6.7174818     -2335.549      -12701.6      
     13550   145.63414      288.69827     -2341.9211      6.3439207     -2335.5772     -8441.616     
     13600   158.0024       313.21652     -2342.4786      6.8826902     -2335.5959     -13146.802    
     13650   155.90891      309.06648     -2342.415       6.7914962     -2335.6235     -11235.989    
     13700   151.26412      299.85887     -2342.1881      6.5891661     -2335.5989     -8835.6279    
     13750   152.76509      302.83432     -2342.2879      6.6545494     -2335.6333     -14603.816    
     13800   150.79529      298.92949     -2342.2217      6.5687438     -2335.6529     -12911.11     
     13850   157.93759      313.08804     -2342.5619      6.8798669     -2335.682      -12668.7      
     13900   161.42589      320.00309     -2342.7308      7.0318198     -2335.699      -12905.151    
     13950   173.24688      343.43645     -2343.2687      7.5467498     -2335.722      -12576.542    
     14000   161.67603      320.49895     -2342.7873      7.0427158     -2335.7446     -11722.898    
     14050   155.12284      307.50821     -2342.5518      6.7572546     -2335.7946     -9393.5524    
     14100   165.32354      327.7296      -2343.0259      7.2016039     -2335.8243     -10402.03     
     14150   157.51978      312.2598      -2342.7093      6.8616669     -2335.8476     -15735.259    
     14200   169.52834      336.065       -2343.2666      7.3847678     -2335.8819     -13302.877    
     14250   155.91123      309.07109     -2342.6867      6.7915976     -2335.8951     -9298.1678    
     14300   154.89898      307.06446     -2342.6633      6.7475034     -2335.9158     -15228.063    
     14350   151.6506       300.625       -2342.5597      6.6060014     -2335.9537     -10553.061    
     14400   156.95687      311.14392     -2342.8182      6.8371463     -2335.981      -12914.999    
     14450   154.35103      305.97822     -2342.7253      6.7236342     -2336.0017     -15016.105    
     14500   146.5938       290.60065     -2342.4064      6.3857239     -2336.0207     -14654.168    
     14550   151.90833      301.13592     -2342.6652      6.6172283     -2336.048      -13517.88     
     14600   152.2763       301.86538     -2342.7087      6.6332576     -2336.0754     -13520.226    
     14650   149.14619      295.6604      -2342.5972      6.496908      -2336.1003     -14259.049    
     14700   145.75893      288.94563     -2342.4621      6.3493563     -2336.1128     -13664.7      
     14750   148.14391      293.67351     -2342.5877      6.4532477     -2336.1344     -13921.523    
     14800   157.46573      312.15266     -2343.014       6.8593126     -2336.1547     -13452.749    
     14850   151.02323      299.38135     -2342.7455      6.578673      -2336.1668     -15992.993    
     14900   139.57913      276.69509     -2342.2672      6.0801601     -2336.187      -13231.857    
     14950   152.66922      302.64429     -2342.856       6.6503735     -2336.2056     -10858.129    
     15000   145.5029       288.43811     -2342.5633      6.3382038     -2336.2251     -13724.538    
     15050   145.54311      288.51782     -2342.5814      6.3399553     -2336.2415     -12593.509    
     15100   149.24884      295.86388     -2342.767       6.5013793     -2336.2656     -12173.94     
     15150   144.8052       287.05502     -2342.5882      6.3078115     -2336.2804     -13506.888    
     15200   146.69121      290.79374     -2342.6805      6.3899671     -2336.2905     -12693.496    
     15250   145.63864      288.70718     -2342.6583      6.3441165     -2336.3142     -12046.283    
     15300   150.96184      299.25964     -2342.9106      6.5759985     -2336.3346     -13025.328    
     15350   152.71535      302.73572     -2343.0009      6.6523828     -2336.3485     -14138.412    
     15400   144.7362       286.91824     -2342.6677      6.3048058     -2336.3629     -14743.697    
     15450   145.01942      287.47968     -2342.7115      6.317143      -2336.3944     -11841.229    
     15500   140.82098      279.15689     -2342.5384      6.1342562     -2336.4042     -16243.668    
     15550   152.761        302.82622     -2343.0683      6.6543713     -2336.414      -8274.201     
     15600   151.68767      300.69851     -2343.0377      6.6076165     -2336.4301     -9897.3       
     15650   143.16968      283.81283     -2342.6589      6.2365669     -2336.4223     -13368.79     
     15700   143.30995      284.0909      -2342.6847      6.2426773     -2336.442      -10557.545    
     15750   142.85529      283.18961     -2342.6735      6.2228722     -2336.4506     -9326.981     
     15800   144.53131      286.51207     -2342.7616      6.2958806     -2336.4657     -9288.9295    
     15850   150.99553      299.32643     -2343.063       6.5774663     -2336.4855     -12501.931    
     15900   143.88515      285.23116     -2342.7611      6.2677335     -2336.4934     -11395.884    
     15950   143.62906      284.7235      -2342.7611      6.2565781     -2336.5045     -7687.5112    
     16000   168.85577      334.73172     -2343.8021      7.3554701     -2336.4466     -13811.074    
     16050   155.35644      307.97129     -2343.227       6.7674303     -2336.4596     -10608.716    
     16100   141.45032      280.40446     -2342.6411      6.1616705     -2336.4794     -12906.396    
     16150   144.66138      286.76992     -2342.8012      6.3015467     -2336.4996     -10527.155    
     16200   151.36697      300.06276     -2343.102       6.5936464     -2336.5083     -9703.4717    
     16250   151.61857      300.56151     -2343.1315      6.6046061     -2336.5269     -9954.5236    
     16300   154.75839      306.78574     -2343.2821      6.7413788     -2336.5407     -14056.389    
     16350   149.5369       296.43491     -2343.0662      6.5139274     -2336.5523     -11143.895    
     16400   144.37612      286.20443     -2342.8515      6.2891204     -2336.5624     -9676.2058    
     16450   157.03678      311.30232     -2343.4255      6.8406272     -2336.5848     -12579.265    
     16500   141.32978      280.16551     -2342.7346      6.1564199     -2336.5782     -15067.932    
     16550   134.81464      267.25019     -2342.461       5.8726158     -2336.5884     -13872.077    
     16600   150.50994      298.36382     -2343.168       6.5563136     -2336.6117     -14446.691    
     16650   146.57785      290.56903     -2343.0075      6.3850291     -2336.6225     -13489.593    
     16700   145.19034      287.81849     -2342.9441      6.3245882     -2336.6196     -13209.995    
     16750   163.56582      324.24518     -2343.7623      7.1250365     -2336.6373     -12279.308    
     16800   161.27479      319.70355     -2343.6769      7.0252377     -2336.6517     -14015.486    
     16850   157.0314       311.29166     -2343.5036      6.8403928     -2336.6633     -13721.179    
     16900   141.34492      280.19552     -2342.8304      6.1570794     -2336.6734     -12716.529    
     16950   148.3751       294.13182     -2343.1505      6.4633187     -2336.6871     -12108.77     
     17000   150.10847      297.56796     -2343.2386      6.5388252     -2336.6997     -12191.359    
     17050   154.52833      306.32969     -2343.4468      6.7313574     -2336.7155     -12807.383    
     17100   144.83284      287.10981     -2343.027       6.3090155     -2336.718      -8776.5399    
     17150   150.20828      297.76583     -2343.2519      6.5431732     -2336.7087     -14364.89     
     17200   134.82365      267.26807     -2342.5883      5.8730086     -2336.7153     -12447.585    
     17250   141.43515      280.37438     -2342.8808      6.1610096     -2336.7198     -13334.329    
     17300   150.13971      297.62989     -2343.2748      6.540186      -2336.7346     -15010.564    
     17350   140.18271      277.89161     -2342.841       6.1064526     -2336.7345     -11272.469    
     17400   139.15162      275.84762     -2342.8082      6.0615375     -2336.7466     -10217.014    
     17450   159.21335      315.61706     -2343.6939      6.9354402     -2336.7585     -14340.49     
     17500   151.88612      301.09189     -2343.3888      6.6162609     -2336.7725     -12479.924    
     17550   149.84081      297.03738     -2343.3019      6.5271661     -2336.7748     -12661.518    
     17600   153.14607      303.58956     -2343.4565      6.6711453     -2336.7854     -12087.402    
     17650   148.66199      294.70054     -2343.2446      6.4758159     -2336.7688     -11426.173    
     17700   140.84612      279.20672     -2342.9208      6.1353513     -2336.7854     -12672.372    
     17750   151.31897      299.9676      -2343.3576      6.5915554     -2336.766      -7221.007     
     17800   147.98561      293.3597      -2343.2099      6.446352      -2336.7635     -15410.929    
     17850   136.7145       271.01639     -2342.7243      5.955375      -2336.769      -13263.895    
     17900   142.04336      281.58007     -2342.968       6.1875037     -2336.7805     -9008.189     
     17950   148.24253      293.86901     -2343.2476      6.4575437     -2336.7901     -12610.543    
     18000   142.11066      281.71348     -2342.9876      6.1904353     -2336.7972     -8533.3181    
     18050   154.07377      305.42858     -2343.5125      6.7115563     -2336.8009     -13795.689    
     18100   153.98574      305.25409     -2343.5171      6.707722      -2336.8094     -10097.905    
     18150   146.10961      289.64082     -2343.2013      6.3646325     -2336.8366     -10442.227    
     18200   139.35822      276.25718     -2342.9112      6.0705374     -2336.8406     -9847.375     
     18250   146.8973       291.20229     -2343.2581      6.3989445     -2336.8591     -11886.017    
     18300   130.93367      259.55674     -2342.5745      5.7035581     -2336.871      -11271.367    
     18350   143.09156      283.65797     -2343.1141      6.2331641     -2336.881      -11943.906    
     18400   149.64796      296.65508     -2343.417       6.5187654     -2336.8983     -12836.792    
     18450   147.19199      291.78647     -2343.3416      6.4117814     -2336.9299     -14362.588    
     18500   145.50276      288.43782     -2343.1904      6.3381975     -2336.8522     -10975.245    
     18550   148.68235      294.74089     -2343.3412      6.4767025     -2336.8645     -12023.44     
     18600   142.43449      282.35543     -2343.0796      6.2045417     -2336.8751     -11683.614    
     18650   138.17838      273.91832     -2342.8951      6.0191428     -2336.876      -11592.369    
     18700   156.85728      310.94649     -2343.7161      6.832808      -2336.8833     -13453.087    
     18750   157.40591      312.03406     -2343.8007      6.8567066     -2336.944      -13825.793    
     18800   144.91077      287.26428     -2343.2192      6.3124099     -2336.9068     -9072.5018    
     18850   146.95739      291.32141     -2343.3214      6.4015621     -2336.9199     -14853.887    
     18900   139.15016      275.84473     -2342.9852      6.061474      -2336.9238     -12624.491    
     18950   154.42144      306.11779     -2343.6581      6.7267011     -2336.9314     -15295.324    
     19000   168.19381      333.41949     -2344.2587      7.3266348     -2336.9321     -15966.761    
     19050   155.85751      308.96459     -2343.7224      6.7892574     -2336.9332     -8362.4903    
     19100   157.84204      312.89862     -2343.8578      6.8757047     -2336.9821     -14938.346    
     19150   153.76949      304.82539     -2343.695       6.6983016     -2336.9967     -11712.254    
     19200   147.05989      291.5246      -2343.4114      6.406027      -2337.0053     -15535.39     
     19250   150.85627      299.05037     -2343.5882      6.5713999     -2337.0168     -12379.819    
     19300   161.24759      319.64963     -2344.0486      7.0240529     -2337.0246     -10617.385    
     19350   150.66628      298.67373     -2343.6031      6.5631237     -2337.04       -13245.049    
     19400   168.4222       333.87224     -2344.3877      7.3365836     -2337.0511     -11699.349    
     19450   165.47906      328.03791     -2344.0884      7.2083787     -2336.88       -12116.325    
     19500   167.34153      331.72998     -2343.9816      7.289509      -2336.6921     -14070.752    
     19550   162.71335      322.55528     -2343.7879      7.0879022     -2336.7        -12628.734    
     19600   163.84495      324.79852     -2343.8473      7.1371957     -2336.7101     -15314.112    
     19650   170.96214      338.90731     -2344.1805      7.4472254     -2336.7333     -12282.04     
     19700   161.38495      319.92194     -2343.7848      7.0300365     -2336.7547     -15105.38     
     19750   167.59717      332.23674     -2343.9638      7.3006447     -2336.6631     -10191.079    
     19800   173.89063      344.7126      -2344.2531      7.5747922     -2336.6783     -12076.028    
     19850   161.49992      320.14985     -2343.7621      7.0350447     -2336.7271     -12303.968    
     19900   151.32291      299.97541     -2343.3364      6.591727      -2336.7447     -9707.7898    
     19950   161.64597      320.43937     -2343.8176      7.0414067     -2336.7762     -9135.1757    
     20000   164.79389      326.67964     -2343.9754      7.1785319     -2336.7968     -14592.211    
     20050   169.39512      335.80092     -2344.2046      7.3789647     -2336.8257     -8466.9526    
     20100   157.60678      312.43226     -2343.7258      6.8654568     -2336.8603     -8720.584     
     20150   166.75103      330.5594      -2344.1526      7.2637866     -2336.8888     -10973.833    
     20200   169.73509      336.47485     -2344.1703      7.393774      -2336.7766     -10966.563    
     20250   174.98626      346.88452     -2344.4451      7.6225183     -2336.8226     -11335.694    
     20300   161.46743      320.08544     -2343.8871      7.0336293     -2336.8535     -13675.609    
     20350   152.75982      302.82387     -2343.5885      6.6543198     -2336.9341     -8294.7251    
     20400   171.38763      339.75078     -2344.4048      7.4657599     -2336.9391     -12002.446    
     20450   168.66283      334.34925     -2344.3244      7.3470655     -2336.9774     -14264.834    
     20500   159.98012      317.13707     -2343.9918      6.9688411     -2337.0229     -11678.022    
     20550   162.85402      322.83415     -2344.1443      7.09403       -2337.0503     -8876.8533    
     20600   175.53319      347.96873     -2344.7116      7.646343      -2337.0652     -12142.214    
     20650   159.84774      316.87463     -2344.0674      6.9630743     -2337.1043     -10657.923    
     20700   156.80219      310.83728     -2343.9716      6.8304082     -2337.1412     -11518.3      
     20750   168.87797      334.77573     -2344.5119      7.3564372     -2337.1555     -13703.901    
     20800   164.24331      325.58821     -2344.1606      7.1545485     -2337.0061     -11804.35     
     20850   159.96897      317.11495     -2344.0193      6.9683552     -2337.0509     -12355.817    
     20900   150.23832      297.82538     -2343.6355      6.5444818     -2337.091      -13886.183    
     20950   165.05466      327.19659     -2344.2789      7.1898915     -2337.089      -13221.282    
     21000   173.93271      344.79603     -2344.6926      7.5766254     -2337.116      -13419.264    
     21050   166.66629      330.39141     -2344.6081      7.2600952     -2337.348      -13135.377    
     21100   157.78614      312.78782     -2344.2519      6.8732697     -2337.3787     -13606.95     
     21150   160.01818      317.21251     -2344.3859      6.970499      -2337.4154     -8630.1695    
     21200   152.95748      303.2157      -2344.1039      6.66293       -2337.4409     -13857.609    
     21250   154.57924      306.43062     -2344.2116      6.7335753     -2337.4781     -15880.821    
     21300   172.1007       341.16434     -2344.8588      7.4968218     -2337.362      -14377.287    
     21350   160.72812      318.61986     -2344.4015      7.0014243     -2337.4001     -9343.5456    
     21400   151.39061      300.10962     -2344.0165      6.5946762     -2337.4218     -16175.411    
     21450   166.86976      330.79477     -2344.7318      7.2689585     -2337.4628     -14561.09     
     21500   176.02553      348.94473     -2344.835       7.6677899     -2337.1672     -11150.213    
     21550   163.3309       323.7795      -2344.2875      7.1148035     -2337.1727     -14642.669    
     21600   157.52564      312.27141     -2344.0582      6.8619221     -2337.1963     -10677.412    
     21650   153.39064      304.07438     -2343.9046      6.6817988     -2337.2228     -11497.902    
     21700   173.66265      344.26066     -2344.8146      7.564861      -2337.2497     -13004.707    
     21750   163.07075      323.26379     -2344.3773      7.1034711     -2337.2739     -9156.4635    
     21800   166.02913      329.12833     -2344.5344      7.2323399     -2337.302      -13086.388    
     21850   167.21566      331.48046     -2344.6108      7.2840261     -2337.3268     -9202.6833    
     21900   161.3327       319.81836     -2344.3822      7.0277604     -2337.3545     -11365.932    
     21950   171.35096      339.67808     -2344.8679      7.4641625     -2337.4038     -11973.802    
     22000   167.97337      332.9825      -2344.7342      7.3170324     -2337.4172     -6826.219     
     22050   161.30927      319.77191     -2344.4684      7.0267398     -2337.4417     -9111.1198    
     22100   152.87472      303.05165     -2344.112       6.6593251     -2337.4526     -11707.962    
     22150   160.50544      318.17843     -2344.4624      6.9917242     -2337.4707     -9931.0579    
     22200   166.6614       330.38172     -2344.7542      7.2598822     -2337.4943     -11701.206    
     22250   150.87725      299.09195     -2344.0834      6.5723137     -2337.5111     -12193.576    
     22300   153.45544      304.20284     -2344.2041      6.6846215     -2337.5194     -10222.69     
     22350   181.3553       359.51022     -2345.4189      7.8999583     -2337.519      -9342.4803    
     22400   145.99793      289.41942     -2343.8983      6.3597673     -2337.5385     -8025.6599    
     22450   155.49553      308.24702     -2344.3229      6.7734892     -2337.5495     -11178.684    
     22500   167.11186      331.27468     -2344.8443      7.2795042     -2337.5648     -9377.2622    
     22550   169.72584      336.45651     -2345.0334      7.3933709     -2337.6401     -13218.321    
     22600   154.2772       305.83186     -2344.3839      6.7204179     -2337.6634     -10403.981    
     22650   158.17009      313.54893     -2344.5635      6.8899947     -2337.6735     -9664.3699    
     22700   154.31724      305.91123     -2344.4337      6.722162      -2337.7116     -12352.478    
     22750   149.49039      296.34272     -2344.0671      6.5119016     -2337.5552     -9657.3582    
     22800   156.94862      311.12757     -2344.41        6.836787      -2337.5732     -7482.0139    
     22850   155.45945      308.1755      -2344.3603      6.7719176     -2337.5884     -12323.97     
     22900   153.57522      304.44029     -2344.1541      6.6898393     -2337.4643     -9071.3258    
     22950   163.51259      324.13966     -2344.5768      7.1227178     -2337.4541     -11874.704    
     23000   163.12556      323.37243     -2344.5297      7.1058584     -2337.4239     -15685.179    
     23050   158.89835      314.99262     -2344.3651      6.9217186     -2337.4434     -11736.448    
     23100   161.09558      319.3483      -2344.4791      7.0174312     -2337.4617     -13004.878    
     23150   173.51178      343.96158     -2345.0409      7.5582891     -2337.4826     -12579.591    
     23200   161.73435      320.61457     -2344.5429      7.0452565     -2337.4977     -13091.86     
     23250   159.15307      315.49755     -2344.3582      6.9328141     -2337.4254     -11893.504    
     23300   149.38754      296.13883     -2343.9416      6.5074212     -2337.4342     -12524.461    
     23350   158.56602      314.33381     -2344.3566      6.9072418     -2337.4494     -12426.222    
     23400   164.16355      325.43011     -2344.6216      7.1510742     -2337.4706     -11712.908    
     23450   162.88701      322.89954     -2344.572       7.0954671     -2337.4765     -11128.823    
     23500   163.17693      323.47426     -2344.6066      7.1080961     -2337.4985     -10913.563    
     23550   180.23354      357.28649     -2345.3715      7.8510937     -2337.5204     -16324.502    
     23600   161.02871      319.21574     -2344.5545      7.0145183     -2337.54       -10898.502    
     23650   157.58794      312.39493     -2344.4118      6.8646363     -2337.5472     -7616.5538    
     23700   169.41384      335.83802     -2344.8133      7.3797802     -2337.4336     -11791.806    
     23750   169.65459      336.31528     -2344.7063      7.3902676     -2337.316      -12951.39     
     23800   166.00229      329.07513     -2344.5646      7.2311709     -2337.3334     -11866.196    
     23850   162.9824       323.08865     -2344.4509      7.0996225     -2337.3513     -14129.954    
     23900   175.83438      348.5658      -2345.0216      7.6594631     -2337.3621     -13291.346    
     23950   163.89384      324.89544     -2344.6361      7.1393254     -2337.4968     -13254.711    
     24000   171.97399      340.91315     -2345.0023      7.4913021     -2337.511      -10765.882    
     24050   161.18572      319.52698     -2344.5565      7.0213576     -2337.5352     -12362.142    
     24100   166.03642      329.14279     -2344.7914      7.2326575     -2337.5587     -10496.698    
     24150   158.16447      313.5378      -2344.4654      6.88975       -2337.5756     -13419.346    
     24200   146.94761      291.30202     -2343.997       6.4011361     -2337.5959     -10067.172    
     24250   166.268        329.60186     -2344.6302      7.2427453     -2337.3875     -12787.572    
     24300   157.46773      312.15661     -2344.2722      6.8593995     -2337.4128     -11175.305    
     24350   160.90548      318.97145     -2344.4429      7.0091504     -2337.4337     -12495.615    
     24400   160.7374       318.63825     -2344.4512      7.0018285     -2337.4493     -8629.3679    
     24450   161.60738      320.36287     -2344.7481      7.0397257     -2337.7084     -10974.496    
     24500   160.52599      318.21917     -2344.7256      6.9926196     -2337.733      -11376.172    
     24550   164.47387      326.04527     -2344.925       7.164592      -2337.7604     -10430.995    
     24600   171.46559      339.90531     -2345.25        7.4691557     -2337.7809     -8584.4809    
     24650   171.96891      340.90307     -2345.3339      7.4910806     -2337.8428     -10314.932    
     24700   151.04623      299.42693     -2344.4469      6.5796747     -2337.8673     -12766.614    
     24750   157.98735      313.18669     -2344.7764      6.8820347     -2337.8944     -9819.9464    
     24800   162.69753      322.52393     -2344.8122      7.0872133     -2337.725      -11631.002    
     24850   161.01117      319.18098     -2344.7732      7.0137545     -2337.7594     -10804.088    
     24900   167.08844      331.22825     -2345.0486      7.278484      -2337.7701     -11488.518    
     24950   146.14594      289.71283     -2343.9125      6.3662149     -2337.5463     -9639.8791    
     25000   165.57867      328.23535     -2344.7899      7.2127174     -2337.5771     -14528.331    
     25050   165.04914      327.18566     -2344.7997      7.1896511     -2337.61       -9568.5508    
     25100   168.33125      333.69195     -2344.9648      7.3326219     -2337.6322     -8868.2693    
     25150   157.80728      312.82973     -2344.5311      6.8741909     -2337.6569     -14518.224    
     25200   148.84719      295.06766     -2344.1717      6.483883      -2337.6879     -12045.76     
     25250   151.98991      301.29765     -2344.3315      6.6207823     -2337.7107     -12300.126    
     25300   160.22269      317.61791     -2344.7239      6.9794074     -2337.7445     -12073.215    
     25350   157.89137      312.99643     -2344.631       6.8778538     -2337.7531     -12601.183    
     25400   169.58197      336.17132     -2345.171       7.3871041     -2337.7839     -10290.587    
     25450   146.30613      290.03039     -2344.1729      6.3731929     -2337.7997     -10800.53     
     25500   160.44558      318.05976     -2344.8259      6.9891167     -2337.8368     -8967.3142    
     25550   172.4096       341.77668     -2345.3712      7.5102775     -2337.8609     -11456.497    
     25600   162.09754      321.33453     -2344.9499      7.0610771     -2337.8888     -10210.376    
     25650   152.21847      301.75073     -2344.5436      6.6307383     -2337.9128     -11528.602    
     25700   162.47115      322.07516     -2345.0059      7.0773519     -2337.9285     -10782.385    
     25750   161.37977      319.91167     -2344.9138      7.0298108     -2337.8839     -8077.9713    
     25800   164.79017      326.67227     -2345.0892      7.1783699     -2337.9108     -13057.32     
     25850   158.40478      314.01418     -2344.6521      6.9002182     -2337.7518     -12439.597    
     25900   170.46933      337.93037     -2345.2196      7.4257579     -2337.7938     -9892.29      
     25950   159.89516      316.96864     -2344.7756      6.96514       -2337.8104     -8876.9778    
     26000   170.73438      338.4558      -2345.274       7.4373037     -2337.8367     -12959.88     
     26050   162.26141      321.65938     -2344.9273      7.0682154     -2337.8591     -13913.991    
     26100   161.54136      320.23198     -2344.9167      7.0368495     -2337.8799     -14033.667    
     26150   163.29179      323.70196     -2345.021       7.1130997     -2337.9079     -10344.239    
     26200   150.24665      297.84189     -2344.3049      6.5448445     -2337.76       -13856.347    
     26250   156.39214      310.02442     -2344.6066      6.8125464     -2337.7941     -12959.891    
     26300   164.6772       326.44834     -2344.9876      7.1734491     -2337.8141     -13162.165    
     26350   149.42607      296.21522     -2344.3547      6.5090997     -2337.8456     -10413.443    
     26400   167.10343      331.25798     -2345.1542      7.2791374     -2337.875      -12700.312    
     26450   147.94227      293.27379     -2344.3348      6.4444642     -2337.8903     -11247.236    
     26500   166.35414      329.77262     -2345.1639      7.2464976     -2337.9174     -14355.077    
     26550   161.30212      319.75773     -2344.9666      7.0264282     -2337.9402     -13489.827    
     26600   134.62035      266.86506     -2343.8123      5.8641527     -2337.9482     -10822.01     
     26650   166.54884      330.15859     -2344.8423      7.254979      -2337.5873     -13601.944    
     26700   170.57674      338.14331     -2345.0044      7.430437      -2337.5739     -12095.907    
     26750   150.94393      299.22414     -2344.1679      6.5752185     -2337.5927     -12391.644    
     26800   158.83505      314.86713     -2344.5339      6.918961      -2337.615      -10210.317    
     26850   159.98897      317.1546      -2344.611       6.9692263     -2337.6418     -12105.634    
     26900   172.13727      341.23683     -2345.1648      7.4984147     -2337.6664     -8549.936     
     26950   159.07106      315.33498     -2344.6244      6.9292416     -2337.6952     -9450.3027    
     27000   169.64749      336.3012      -2345.1127      7.3899581     -2337.7228     -11006.991    
     27050   156.75025      310.73431     -2344.5688      6.8281456     -2337.7406     -12109.263    
     27100   150.26305      297.8744      -2344.3045      6.545559      -2337.7589     -10948.818    
     27150   155.51385      308.28333     -2344.5537      6.7742873     -2337.7794     -11575.549    
     27200   164.12487      325.35342     -2344.8614      7.1493892     -2337.712      -10588.289    
     27250   152.46087      302.23126     -2344.3756      6.6412975     -2337.7343     -11435.397    
     27300   162.31352      321.76268     -2344.8256      7.0704854     -2337.7551     -10186.075    
     27350   155.54137      308.33789     -2344.5465      6.7754861     -2337.771      -11966.491    
     27400   156.09442      309.43424     -2344.5934      6.7995775     -2337.7939     -11243.498    
     27450   153.70863      304.70475     -2344.4921      6.6956506     -2337.7965     -11206.439    
     27500   170.57662      338.14307     -2344.7521      7.4304317     -2337.3217     -10540.7      
     27550   160.00186      317.18017     -2344.1157      6.9697882     -2337.1459     -13602.189    
     27600   165.90644      328.88511     -2344.3951      7.2269953     -2337.1681     -14074.492    
     27650   158.82454      314.8463      -2344.102       6.9185034     -2337.1835     -12211.281    
     27700   164.74836      326.5894      -2344.3765      7.1765488     -2337.1999     -15279.918    
     27750   156.11242      309.46991     -2344.0275      6.8003614     -2337.2272     -10144.821    
     27800   141.72524      280.94945     -2343.418       6.1736464     -2337.2443     -12982.519    
     27850   164.08471      325.27381     -2344.4111      7.1476398     -2337.2634     -13248.768    
     27900   159.88839      316.95522     -2344.2495      6.9648452     -2337.2847     -12550.383    
     27950   145.41502      288.26389     -2343.6401      6.3343756     -2337.3058     -13835.367    
     28000   150.58248      298.50762     -2343.8806      6.5594734     -2337.3211     -10182.904    
     28050   170.86162      338.70804     -2344.7852      7.4428465     -2337.3424     -12094.078    
     28100   152.83877      302.98038     -2344.0171      6.657759      -2337.3594     -10238.99     
     28150   155.73451      308.72077     -2344.1565      6.7838996     -2337.3726     -7884.2059    
     28200   157.30024      311.8246      -2344.2469      6.8521037     -2337.3948     -12659.891    
     28250   160.72419      318.61207     -2344.412       7.0012533     -2337.4108     -11300.864    
     28300   148.49705      294.37356     -2343.9056      6.4686308     -2337.437      -11460.05     
     28350   155.2822       307.82412     -2344.2298      6.7641965     -2337.4656     -11985.797    
     28400   155.82967      308.9094      -2344.2728      6.7880446     -2337.4847     -11773.999    
     28450   154.22771      305.73376     -2344.2074      6.7182624     -2337.4891     -10046.779    
     28500   149.12697      295.6223      -2344.0043      6.4960707     -2337.5083     -8067.9715    
     28550   154.75099      306.77109     -2344.2653      6.7410568     -2337.5242     -11522.4      
     28600   149.95382      297.26139     -2344.0832      6.5320886     -2337.5511     -10247.254    
     28650   161.77695      320.699       -2344.6104      7.047112      -2337.5633     -12096.886    
     28700   161.13118      319.41887     -2344.6062      7.018982      -2337.5872     -10343.536    
     28750   163.89064      324.88908     -2344.7448      7.1391857     -2337.6056     -12606.327    
     28800   156.54754      310.33248     -2344.4491      6.8193157     -2337.6297     -12619.334    
     28850   153.23988      303.77553     -2344.322       6.6752318     -2337.6468     -10509.563    
     28900   153.60964      304.50852     -2344.3268      6.6913386     -2337.6355     -13816.637    
     28950   149.81581      296.98781     -2344.1864      6.5260768     -2337.6603     -10063.951    
     29000   152.72792      302.76064     -2344.3383      6.6529303     -2337.6854     -14732.853    
     29050   159.96233      317.1018      -2344.6738      6.9680662     -2337.7057     -11619.315    
     29100   156.03853      309.32344     -2344.5155      6.7971428     -2337.7183     -11166.64     
     29150   146.37541      290.16772     -2344.1192      6.3762107     -2337.743      -9937.8912    
     29200   165.63176      328.34061     -2344.9794      7.2150304     -2337.7644     -11011.189    
     29250   176.2613       349.41211     -2345.4673      7.6780603     -2337.7892     -9744.3271    
     29300   146.25635      289.93171     -2344.1731      6.3710244     -2337.8021     -11642.347    
     29350   150.7286       298.79729     -2344.384       6.5658388     -2337.8182     -11619.286    
     29400   155.53199      308.3193      -2344.6226      6.7750776     -2337.8475     -11954.829    
     29450   166.33094      329.72664     -2345.1179      7.2454872     -2337.8724     -11039.293    
     29500   138.86945      275.28826     -2343.9354      6.049246      -2337.8861     -8867.8079    
     29550   151.86597      301.05196     -2344.5293      6.6153833     -2337.9139     -11117.765    
     29600   170.68162      338.35121     -2345.3696      7.4350055     -2337.9346     -12627.323    
     29650   156.0159       309.27858     -2344.7476      6.7961569     -2337.9514     -10643.138    
     29700   146.46546      290.34623     -2344.3452      6.3801333     -2337.965      -8575.5056    
     29750   162.86646      322.8588      -2345.0855      7.0945718     -2337.9909     -13531.695    
     29800   141.75402      281.0065      -2344.186       6.1749        -2338.0111     -11169.658    
     29850   162.99699      323.11757     -2345.1369      7.1002581     -2338.0366     -11757.862    
     29900   140.235        277.99526     -2344.1604      6.1087302     -2338.0517     -11696.941    
     29950   154.4131       306.10126     -2344.7238      6.7263379     -2337.9975     -12994.894    
     30000   142.17793      281.84683     -2344.169       6.1933656     -2337.9757     -13091.574    
     30050   160.85879      318.8789      -2345.0048      7.0071165     -2337.9977     -13767.499    
     30100   160.47785      318.12373     -2345.007       6.9905224     -2338.0165     -10664.917    
     30150   150.23357      297.81596     -2344.5821      6.5442749     -2338.0378     -11525.6      
     30200   167.8621       332.76193     -2345.3703      7.3121853     -2338.0582     -8311.0111    
     30250   159.41768      316.02211     -2345.0225      6.9443409     -2338.0781     -11536.962    
     30300   152.94891      303.19873     -2344.7377      6.6625569     -2338.0751     -12447.562    
     30350   155.39437      308.04649     -2344.8644      6.7690827     -2338.0953     -14256.852    
     30400   158.34563      313.89692     -2345.0077      6.8976415     -2338.1101     -14098.917    
     30450   156.57751      310.39189     -2344.9557      6.8206211     -2338.1351     -9481.4807    
     30500   144.58681      286.6221      -2344.4468      6.2982983     -2338.1485     -14091.19     
     30550   161.88541      320.91402     -2345.2223      7.0518368     -2338.1705     -14791.281    
     30600   161.55533      320.25968     -2345.1716      7.0374583     -2338.1341     -11611.799    
     30650   169.33502      335.68177     -2345.0086      7.3763466     -2337.6323     -12516.947    
     30700   156.90016      311.03149     -2344.4436      6.8346758     -2337.6089     -11010.479    
     30750   148.71224      294.80014     -2344.1047      6.4780044     -2337.6267     -10526.415    
     30800   160.63273      318.43076     -2344.6437      6.997269      -2337.6464     -11869.169    
     30850   158.12475      313.45905     -2344.5591      6.8880197     -2337.671      -11908.059    
     30900   149.38559      296.13497     -2344.1927      6.5073363     -2337.6854     -14074.784    
     30950   147.47483      292.34717     -2344.1265      6.4241024     -2337.7024     -13091.139    
     31000   162.72125      322.57095     -2344.81        7.0882465     -2337.7218     -10911.571    
     31050   156.58612      310.40896     -2344.5671      6.8209962     -2337.7461     -9131.2652    
     31100   151.13875      299.61034     -2344.3531      6.5837049     -2337.7694     -14469.051    
     31150   144.05639      285.57062     -2344.0806      6.2751929     -2337.8054     -9337.5061    
     31200   154.31749      305.91173     -2344.5455      6.7221731     -2337.8233     -8998.7445    
     31250   149.5267       296.4147      -2344.2267      6.5134832     -2337.7133     -10676.488    
     31300   156.16982      309.58371     -2344.5385      6.802862      -2337.7357     -12050.067    
     31350   155.15721      307.57635     -2344.5073      6.7587518     -2337.7485     -14070.626    
     31400   167.98878      333.01305     -2345.0825      7.3177036     -2337.7648     -12118.995    
     31450   162.96         323.04423     -2344.8823      7.0986465     -2337.7836     -15013.182    
     31500   149.54985      296.46059     -2344.3898      6.5144915     -2337.8753     -9770.391     
     31550   164.04251      325.19015     -2345.0368      7.1458015     -2337.891      -12509.279    
     31600   164.67804      326.45        -2345.0844      7.1734856     -2337.9109     -9830.2948    
     31650   168.02953      333.09383     -2345.2408      7.3194787     -2337.9213     -11170.208    
     31700   157.15555      311.53777     -2344.7947      6.845801      -2337.9489     -11289.275    
     31750   157.08336      311.39467     -2344.8128      6.8426564     -2337.9701     -11920.402    
     31800   163.93192      324.97092     -2345.1379      7.140984      -2337.997      -9115.6487    
     31850   162.19614      321.52999     -2345.0749      7.0653722     -2338.0095     -9514.964     
     31900   167.86836      332.77434     -2345.3454      7.312458      -2338.0329     -11568.671    
     31950   138.01381      273.59209     -2344.0548      6.011974      -2338.0428     -13004.33     
     32000   169.88209      336.76625     -2345.3743      7.4001773     -2337.9741     -12461.396    
     32050   153.00091      303.3018      -2344.6519      6.6648218     -2337.9871     -11655.32     
     32100   144.89082      287.22475     -2344.3162      6.3115412     -2338.0047     -8638.6695    
     32150   145.2958       288.02756     -2344.3549      6.3291824     -2338.0257     -9604.4045    
     32200   142.56878      282.62163     -2344.2548      6.2103913     -2338.0444     -10485.174    
     32250   152.1788       301.67209     -2344.7161      6.6290103     -2338.0871     -10194.624    
     32300   163.20701      323.5339      -2345.1779      7.1094067     -2338.0685     -11091.366    
     32350   154.40466      306.08453     -2344.8079      6.7259703     -2338.082      -6153.7872    
     32400   146.93         291.26712     -2344.4953      6.4003692     -2338.0949     -11191.074    
     32450   147.16317      291.72935     -2344.5497      6.4105263     -2338.1391     -7322.7071    
     32500   157.14022      311.50737     -2345.0517      6.845133      -2338.2066     -9384.2121    
     32550   148.77407      294.92271     -2344.704       6.4806979     -2338.2233     -14725.28     
     32600   148.43204      294.2447      -2344.7028      6.4657991     -2338.237      -11749.645    
     32650   158.77933      314.75668     -2345.1722      6.9165339     -2338.2556     -10202.845    
     32700   159.42833      316.04322     -2345.1867      6.9448046     -2338.2419     -9872.0736    
     32750   159.6401       316.46302     -2345.1587      6.9540295     -2338.2047     -9998.4312    
     32800   147.12468      291.65305     -2344.6284      6.4088497     -2338.2195     -12887.672    
     32850   166.05503      329.17967     -2345.4679      7.2334681     -2338.2345     -13642.609    
     32900   161.75864      320.66271     -2345.3121      7.0463145     -2338.2658     -11265.981    
     32950   145.28599      288.0081      -2344.5406      6.3287548     -2338.2119     -13808.256    
     33000   151.16855      299.66941     -2344.8169      6.585003      -2338.2319     -9650.7117    
[...]
    191100   150.24306      297.83477     -2346.0863      6.5446882     -2339.5416     -11031.416    
    191150   153.03671      303.37277     -2346.0691      6.6663814     -2339.4027     -11103.023    
    191200   153.19598      303.6885      -2345.2525      6.6733193     -2338.5792     -12500.5      
    191250   162.09752      321.33449     -2346.1729      7.0610763     -2339.1119     -8074.7178    
    191300   144.4053       286.26227     -2345.4589      6.2903914     -2339.1685     -8857.5484    
    191350   137.95058      273.46673     -2345.2028      6.0092194     -2339.1936     -8042.5003    
    191400   148.52565      294.43025     -2345.6933      6.4698765     -2339.2234     -9128.2615    
    191450   154.54107      306.35494     -2345.9988      6.7319122     -2339.2669     -11130.752    
    191500   150.80231      298.94341     -2345.862       6.5690496     -2339.2929     -13737.109    
    191550   154.2531       305.78409     -2346.0355      6.7193683     -2339.3161     -9159.5656    
    191600   139.63428      276.80443     -2345.4192      6.0825627     -2339.3366     -5493.4239    
    191650   141.87108      281.23855     -2345.5482      6.1799992     -2339.3682     -14359.792    
    191700   159.20146      315.59348     -2345.2685      6.934922      -2338.3335     -9692.3104    
    191750   149.80386      296.96413     -2344.9647      6.5255564     -2338.4391     -8916.9834    
    191800   155.79062      308.832       -2345.5997      6.7863437     -2338.8133     -11528.533    
    191850   176.44881      349.78382     -2346.0083      7.6862283     -2338.3221     -11703.692    
    191900   146.04505      289.51284     -2344.864       6.3618202     -2338.5022     -9533.7659    
    191950   148.25567      293.89506     -2344.9864      6.458116      -2338.5283     -14086.773    
    192000   142.35966      282.2071      -2344.7386      6.2012822     -2338.5373     -9192.1776    
    192050   155.03598      307.33604     -2345.1391      6.7534711     -2338.3856     -11605.252    
    192100   154.32044      305.91758     -2345.1802      6.7223017     -2338.4579     -12871.27     
    192150   164.13562      325.37473     -2345.6584      7.1498575     -2338.5085     -13826.733    
    192200   147.44289      292.28385     -2344.956       6.4227109     -2338.5333     -8683.5987    
    192250   150.22242      297.79387     -2345.122       6.5437893     -2338.5782     -9526.7066    
    192300   159.16649      315.52415     -2345.5366      6.9333986     -2338.6032     -11624.625    
    192350   164.28857      325.67792     -2345.6636      7.1565198     -2338.507      -10014.052    
    192400   158.47563      314.15463     -2344.5854      6.9033045     -2337.6821     -12556.488    
    192450   152.85784      303.01818     -2343.8449      6.6585896     -2337.1863     -8563.056     
    192500   174.3083       345.54056     -2344.9123      7.5929859     -2337.3193     -7602.9316    
    192550   175.07591      347.06225     -2344.6912      7.6264239     -2337.0647     -10663.477    
    192600   177.71423      352.29232     -2344.1542      7.7413507     -2336.4129     -9262.0495    
    192650   192.26604      381.13915     -2345.1944      8.3752374     -2336.8192     -9951.1152    
    192700   174.81481      346.54465     -2344.2726      7.61505       -2336.6575     -11625.675    
    192750   167.29645      331.64061     -2343.9908      7.2875452     -2336.7033     -12396.156    
    192800   173.33331      343.6078      -2344.3019      7.550515      -2336.7514     -10632.431    
    192850   179.11271      355.06462     -2344.5911      7.8022697     -2336.7888     -14722.584    
    192900   168.28091      333.59215     -2344.1617      7.3304289     -2336.8313     -13873.887    
    192950   180.34663      357.51067     -2344.393       7.8560197     -2336.537      -9555.4879    
    193000   175.2599       347.42699     -2343.8824      7.6344386     -2336.2479     -13154.503    
    193050   195.41637      387.38422     -2344.0685      8.512468      -2335.5561     -8789.4184    
    193100   163.32819      323.77411     -2342.8708      7.114685      -2335.7561     -9769.4394    
    193150   186.99481      370.68972     -2343.8465      8.1456192     -2335.7009     -10346.05     
    193200   190.35799      377.35673     -2343.3179      8.2921215     -2335.0257     -8386.2615    
    193250   177.53908      351.94512     -2343.256       7.7337211     -2335.5223     -14291.989    
    193300   180.20149      357.22295     -2343.2668      7.8496973     -2335.4171     -3817.4998    
    193350   175.98283      348.86008     -2343.2019      7.6659299     -2335.536      -11452.536    
    193400   198.04688      392.59882     -2344.3673      8.6270546     -2335.7403     -9933.1785    
    193450   179.80789      356.44269     -2343.5832      7.8325518     -2335.7507     -10555.564    
    193500   178.53464      353.91866     -2343.5924      7.7770881     -2335.8153     -9199.7692    
    193550   166.16088      329.38952     -2343.0876      7.2380793     -2335.8495     -11698.309    
    193600   182.70645      362.18866     -2343.9794      7.958815      -2336.0205     -9516.017     
    193650   184.37587      365.49804     -2343.7112      8.0315361     -2335.6797     -7106.0251    
    193700   172.74717      342.44586     -2343.2913      7.5249823     -2335.7663     -9668.7258    
    193750   185.58294      367.89089     -2343.91        8.084117      -2335.8259     -12954.07     
    193800   176.21487      349.32006     -2343.5575      7.6760374     -2335.8814     -10541.201    
    193850   187.23474      371.16533     -2343.7565      8.1560704     -2335.6004     -7990.525     
    193900   192.27279      381.15252     -2343.6361      8.3755311     -2335.2606     -13111.108    
    193950   190.92319      378.47714     -2343.6507      8.3167416     -2335.334      -13421.576    
    194000   178.27418      353.40235     -2342.655       7.7657427     -2334.8892     -8207.2754    
    194050   186.7068       370.11877     -2343.1856      8.1330731     -2335.0525     -11467.812    
    194100   193.76749      384.11555     -2343.5541      8.4406413     -2335.1135     -9382.0362    
    194150   182.11871      361.02356     -2342.8674      7.9332127     -2334.9342     -14066.779    
    194200   154.53216      306.33728     -2341.7194      6.7315242     -2334.9879     -9892.1724    
    194250   163.30722      323.73254     -2342.1527      7.1137716     -2335.0389     -11496.696    
    194300   186.26034      369.23373     -2343.2054      8.113625      -2335.0918     -11020.983    
    194350   202.28205      400.99441     -2343.8172      8.8115412     -2335.0056     -11923.849    
    194400   188.67007      374.01066     -2343.3949      8.2185944     -2335.1763     -12376.953    
    194450   192.19607      381.00045     -2343.6338      8.3721895     -2335.2616     -8158.9529    
    194500   188.72103      374.11168     -2343.5687      8.2208141     -2335.3479     -8816.0229    
    194550   181.82197      360.43532     -2343.2073      7.9202866     -2335.2871     -9276.2964    
    194600   186.94782      370.59655     -2343.396       8.1435719     -2335.2524     -12397.762    
    194650   176.58599      350.05576     -2343.0197      7.6922039     -2335.3275     -11992.401    
    194700   195.61426      387.77651     -2343.7132      8.5210882     -2335.1921     -9549.4142    
    194750   186.32447      369.36086     -2343.3302      8.1164186     -2335.2138     -10493.966    
    194800   205.1322       406.64442     -2343.6968      8.9356958     -2334.7611     -10920.722    
    194850   196.51007      389.55232     -2343.1747      8.5601103     -2334.6146     -8479.8023    
    194900   178.81806      354.48051     -2342.4794      7.7894344     -2334.69       -6641.3013    
    194950   186.07662      368.86954     -2342.8723      8.1056222     -2334.7666     -9477.255     
    195000   191.46134      379.54394     -2343.121       8.3401839     -2334.7808     -7070.4821    
    195050   202.42388      401.27557     -2343.583       8.8177195     -2334.7653     -11638.938    
    195100   188.57894      373.83001     -2343.0709      8.2146246     -2334.8562     -11624.223    
    195150   192.93964      382.47447     -2343.1866      8.4045799     -2334.782      -6911.4738    
    195200   180.95489      358.71645     -2342.7732      7.8825158     -2334.8907     -8620.7064    
    195250   179.91877      356.6625      -2342.4378      7.8373819     -2334.6004     -8152.8663    
    195300   198.50224      393.5015      -2342.9216      8.6468904     -2334.2747     -8208.5807    
    195350   188.57585      373.82388     -2342.136       8.21449       -2333.9215     -12807.855    
    195400   192.79618      382.19007     -2342.4067      8.3983305     -2334.0083     -9700.5369    
    195450   180.5421       357.89817     -2341.9455      7.8645347     -2334.0809     -10587.417    
    195500   178.43971      353.73049     -2341.9316      7.7729532     -2334.1587     -14358.791    
    195550   188.97622      374.61757     -2342.5071      8.2319307     -2334.2752     -12790.542    
    195600   199.09817      394.68285     -2343.0146      8.6728495     -2334.3418     -10738.832    
    195650   186.81024      370.32383     -2342.5649      8.137579      -2334.4273     -11259.652    
    195700   219.90024      435.91988     -2344.0308      9.5790014     -2334.4518     -9358.554     
    195750   199.9402       396.35203     -2343.1953      8.7095286     -2334.4857     -7085.7015    
    195800   195.78607      388.1171      -2343.1212      8.5285722     -2334.5927     -8723.5514    
    195850   200.55822      397.57717     -2343.3184      8.7364501     -2334.5819     -10012.04     
    195900   200.70976      397.87759     -2343.4371      8.7430516     -2334.6941     -9287.5121    
    195950   203.64196      403.69023     -2343.6595      8.8707799     -2334.7887     -11533.149    
    196000   179.88382      356.59323     -2342.7653      7.8358597     -2334.9295     -7997.6054    
    196050   214.50655      425.22769     -2344.2753      9.3440487     -2334.9313     -11665.42     
    196100   187.87549      372.43554     -2343.1629      8.1839821     -2334.979      -11041.645    
    196150   195.90059      388.34411     -2343.6349      8.5335607     -2335.1013     -7290.1817    
    196200   197.5986       391.71017     -2343.773       8.6075272     -2335.1655     -12132.613    
    196250   181.38982      359.57865     -2342.8488      7.9014621     -2334.9473     -10877.389    
    196300   185.07744      366.8888      -2343.0733      8.0620969     -2335.0112     -10816.186    
    196350   184.33835      365.42366     -2343.1228      8.0299017     -2335.0929     -6796.1255    
    196400   193.59284      383.76933     -2343.397       8.4330335     -2334.964      -9355.3808    
    196450   176.8153       350.51033     -2342.8942      7.7021928     -2335.192      -11802.129    
    196500   196.33923      389.21365     -2343.6298      8.5526682     -2335.0772     -8654.1109    
    196550   175.68381      348.26731     -2342.665       7.6529041     -2335.0121     -11108.975    
    196600   190.61129      377.85886     -2343.6458      8.3031554     -2335.3427     -13373.97     
    196650   175.69384      348.28719     -2342.7256      7.653341      -2335.0722     -12184.63     
    196700   191.85573      380.32577     -2343.4814      8.3573639     -2335.124      -7019.5934    
    196750   200.03312      396.53624     -2343.3993      8.7135764     -2334.6857     -10458.325    
    196800   180.88964      358.58711     -2342.629       7.8796738     -2334.7493     -15101.086    
    196850   177.92389      352.70794     -2342.6607      7.7504836     -2334.9102     -11475.781    
    196900   209.60597      415.51302     -2343.6872      9.1305764     -2334.5566     -8567.3079    
    196950   196.85088      390.22793     -2342.8712      8.5749561     -2334.2962     -4330.7553    
    197000   193.10772      382.80766     -2342.8108      8.4119015     -2334.3989     -9873.376     
    197050   176.16414      349.21949     -2342.2382      7.6738276     -2334.5643     -9509.8335    
    197100   203.14885      402.71272     -2343.2311      8.8492997     -2334.3818     -7893.7251    
    197150   189.14279      374.94776     -2342.767       8.2391863     -2334.5278     -7618.0801    
    197200   199.58957      395.65698     -2343.3156      8.6942554     -2334.6213     -14973.845    
    197250   190.38541      377.41109     -2342.899       8.293316      -2334.6057     -11439.503    
    197300   190.07868      376.80303     -2342.6604      8.2799544     -2334.3805     -6284.0579    
    197350   177.59847      352.06286     -2342.1968      7.7363083     -2334.4605     -9760.0738    
    197400   187.6973       372.08229     -2342.7191      8.1762199     -2334.5429     -10357.091    
    197450   197.0591       390.64069     -2343.2276      8.5840262     -2334.6436     -12422.711    
    197500   211.9967       420.25229     -2342.819       9.2347182     -2333.5843     -11728.006    
    197550   208.67656      413.6706      -2343.0508      9.0900907     -2333.9607     -10673.825    
    197600   213.01369      422.26832     -2343.336       9.279019      -2334.0569     -9398.594     
    197650   205.30254      406.9821      -2343.1072      8.943116      -2334.1641     -8445.8413    
    197700   190.25128      377.14519     -2342.6576      8.2874731     -2334.3701     -10748.232    
    197750   203.74841      403.90126     -2343.1953      8.8754169     -2334.3198     -9892.026     
    197800   216.82327      429.82024     -2343.62        9.4449666     -2334.175      -9926.186     
    197850   211.61589      419.49738     -2343.2096      9.2181297     -2333.9915     -13743.881    
    197900   209.38978      415.08444     -2343.2395      9.1211587     -2334.1183     -10989.393    
    197950   204.13761      404.67279     -2342.9463      8.8923709     -2334.054      -6874.1563    
    198000   212.91605      422.07476     -2343.1988      9.2747655     -2333.9241     -11025.779    
    198050   209.22899      414.76571     -2343.2828      9.1141549     -2334.1686     -9166.8759    
    198100   184.34023      365.4274      -2342.3613      8.0299838     -2334.3313     -5913.5925    
    198150   208.90234      414.11817     -2342.9418      9.0999256     -2333.8419     -11188.636    
    198200   200.40456      397.27257     -2342.7186      8.7297568     -2333.9888     -12749.86     
    198250   188.64495      373.96088     -2342.2956      8.2175003     -2334.0781     -8579.2112    
    198300   189.46445      375.58541     -2342.3699      8.2531982     -2334.1167     -7913.5888    
    198350   200.09739      396.66365     -2342.935       8.7163762     -2334.2186     -11208.913    
    198400   206.19602      408.75329     -2343.1246      8.9820367     -2334.1426     -7850.0417    
    198450   171.25274      339.48337     -2341.7614      7.4598838     -2334.3016     -7991.2277    
    198500   196.91001      390.34515     -2342.938       8.577532      -2334.3604     -7767.2824    
    198550   183.18466      363.13665     -2342.4321      7.9796464     -2334.4525     -10291.09     
    198600   231.04219      458.00717     -2343.9114      10.064352     -2333.8471     -10123.538    
    198650   189.53824      375.73169     -2342.538       8.2564126     -2334.2816     -9504.1938    
    198700   225.02406      446.07711     -2343.192       9.8021985     -2333.3898     -9747.5071    
    198750   203.23862      402.89068     -2342.7319      8.8532103     -2333.8787     -8914.1949    
    198800   194.60052      385.76691     -2342.458       8.4769288     -2333.9811     -11102.082    
    198850   188.80194      374.27208     -2342.3068      8.2243388     -2334.0824     -8639.3321    
    198900   202.36339      401.15567     -2342.9868      8.8150848     -2334.1717     -8451.4807    
    198950   189.08445      374.83211     -2342.4984      8.236645      -2334.2617     -10577.676    
    199000   207.45201      411.24309     -2343.3255      9.0367481     -2334.2888     -9645.445     
    199050   227.36608      450.71982     -2343.5462      9.9042186     -2333.642      -12425.144    
    199100   234.61344      465.08665     -2343.7273      10.219919     -2333.5074     -11173.264    
    199150   202.94476      402.30815     -2342.6447      8.8404096     -2333.8042     -12999.409    
    199200   195.02209      386.60262     -2342.3508      8.4952929     -2333.8555     -13915.243    
    199250   223.11127      442.28528     -2343.4831      9.7188762     -2333.7642     -9792.503     
    199300   196.88801      390.30152     -2342.0817      8.5765733     -2333.5051     -6535.7404    
    199350   195.82005      388.18445     -2342.5919      8.5300523     -2334.0619     -7878.4237    
    199400   200.45497      397.3725      -2342.8905      8.7319525     -2334.1586     -10448.798    
    199450   213.08933      422.41825     -2343.0905      9.2823136     -2333.8082     -9909.4819    
    199500   214.82729      425.86351     -2343.0104      9.3580205     -2333.6523     -6166.8881    
    199550   197.91246      392.33234     -2342.3656      8.6211991     -2333.7444     -11443.4      
    199600   201.83214      400.10254     -2342.6468      8.7919431     -2333.8548     -8147.2818    
    199650   213.61708      423.46445     -2343.2509      9.305303      -2333.9456     -7952.8903    
    199700   188.83981      374.34716     -2342.1425      8.2259885     -2333.9165     -8528.1895    
    199750   196.73018      389.98865     -2342.4068      8.5696981     -2333.8371     -8423.6033    
    199800   191.15765      378.94193     -2342.3632      8.326955      -2334.0363     -5619.3783    
    199850   209.0043       414.32029     -2343.1087      9.1043672     -2334.0043     -13166.047    
    199900   216.31428      428.81125     -2343.0011      9.4227948     -2333.5783     -13348.853    
    199950   189.42766      375.51248     -2341.9372      8.2515955     -2333.6856     -8039.7681    
    200000   190.64902      377.93365     -2342.0853      8.3047988     -2333.7805     -9300.6268    
colvars: Saving collective variables state to "out.colvars.state".
Loop time of 1067.16 on 4 procs for 200000 steps with 338 atoms

Performance: 8.096 ns/day, 2.964 hours/ns, 187.413 timesteps/s, 63.346 katom-step/s
137.5% CPU use with 4 MPI tasks x 1 OpenMP threads

MPI task timing breakdown:
Section |  min time  |  avg time  |  max time  |%varavg| %total
---------------------------------------------------------------
Pair    | 813.77     | 902.35     | 979.46     | 217.4 | 84.56
Neigh   | 0.13809    | 1.6962     | 2.8487     |  79.2 |  0.16
Comm    | 12.547     | 80.923     | 144.91     | 605.3 |  7.58
Output  | 39.533     | 45.705     | 52.67      |  85.8 |  4.28
Modify  | 18.039     | 27.861     | 53.516     | 281.5 |  2.61
Other   |            | 8.624      |            |       |  0.81

Nlocal:           84.5 ave         118 max           8 min
Histogram: 1 0 0 0 0 0 0 0 1 2
Nghost:           1145 ave        1652 max         709 min
Histogram: 1 0 0 1 0 1 0 0 0 1
Neighs:              0 ave           0 max           0 min
Histogram: 4 0 0 0 0 0 0 0 0 0
FullNghs:        14884 ave       22779 max         829 min
Histogram: 1 0 0 0 0 1 0 0 0 2

Total # of neighbors = 59536
Ave neighs/atom = 176.14201
Neighbor list builds = 2971
Dangerous builds = 0
System init for write_data ...
Generated 0 of 10 mixed pair_coeff terms from geometric mixing rule

CITE-CITE-CITE-CITE-CITE-CITE-CITE-CITE-CITE-CITE-CITE-CITE-CITE

Your simulation uses code contributions which should be cited:
- Colvars module (Fiorin2013, plus other works listed for specific features)
The log file lists these citations in BibTeX format.

CITE-CITE-CITE-CITE-CITE-CITE-CITE-CITE-CITE-CITE-CITE-CITE-CITE

Total wall time: 0:18:27
