 # Fe168 O56 H113 Cl
  
         338  atoms
           5  atom types
 
      0.000000000000      11.328000000000  xlo xhi
      0.000000000000      12.015000000000  ylo yhi
      0.000000000000      32.000000000000  zlo zhi
 
Masses
 
            1   55.84500000             # Fe
            2   15.99900000             # O
            3   1.00800000              # H
            4   35.45000000             # Cl
            5   51.99610000             # Cr
 
Atoms # atomic
 
         1    1        0.000000000000       0.000000000000       0.000000000000
         2    1        0.000000000000       2.002540050000       2.002784000000
         3    1       11.328000000000       0.000000000000       4.005120000000
         4    1        0.000000000000       2.002540050000       6.007904000000
         5    1        0.000000000000       0.000000000000       8.009856000000
         6    1        0.000000000000       2.002540050000      10.011808000000
         7    1        0.000000000000       0.000000000000      12.015008000000
         8    1        1.416000000000       2.002540050000       0.000000000000
         9    1        1.416000000000       0.000000000000       2.002784000000
        10    1        1.416000000000       2.002540050000       4.005120000000
        11    1        1.416000000000       0.000000000000       6.007904000000
        12    1        1.416000000000       2.002540050000       8.009856000000
        13    1        1.416000000000       0.000000000000      10.011808000000
        14    1        1.416000000000       2.002540050000      12.015008000000
        15    1        2.832000000000       0.000000000000       0.000000000000
        16    1        2.832000000000       2.002540050000       2.002784000000
        17    1        2.832000000000       0.000000000000       4.005120000000
        18    1        2.832000000000       2.002540050000       6.007904000000
        19    1        2.832000000000       0.000000000000       8.009856000000
        20    1        2.832000000000       2.002540050000      10.011808000000
        21    1        2.832000000000       0.000000000000      12.015008000000
        22    1        4.248000000000       2.002540050000       0.000000000000
        23    1        4.248000000000       0.000000000000       2.002784000000
        24    1        4.248000000000       2.002540050000       4.005120000000
        25    1        4.248000000000       0.000000000000       6.007904000000
        26    1        4.248000000000       2.002540050000       8.009856000000
        27    1        4.248000000000       0.000000000000      10.011808000000
        28    1        4.248000000000       2.002540050000      12.015008000000
        29    1        5.664000000000       0.000000000000       0.000000000000
        30    1        5.664000000000       2.002540050000       2.002784000000
        31    1        5.664000000000       0.000000000000       4.005120000000
        32    1        5.664000000000       2.002540050000       6.007904000000
        33    1        5.664000000000       0.000000000000       8.009856000000
        34    1        5.664000000000       2.002540050000      10.011808000000
        35    1        5.664000000000       0.000000000000      12.015008000000
        36    1        7.080000000000       2.002540050000       0.000000000000
        37    1        7.080000000000       0.000000000000       2.002784000000
        38    1        7.080000000000       2.002540050000       4.005120000000
        39    1        7.080000000000       0.000000000000       6.007904000000
        40    1        7.080000000000       2.002540050000       8.009856000000
        41    1        7.080000000000       0.000000000000      10.011808000000
        42    1        7.080000000000       2.002540050000      12.015008000000
        43    1        8.496000000000       0.000000000000       0.000000000000
        44    1        8.496000000000       2.002540050000       2.002784000000
        45    1        8.496000000000       0.000000000000       4.005120000000
        46    1        8.496000000000       2.002540050000       6.007904000000
        47    1        8.496000000000       0.000000000000       8.009856000000
        48    1        8.496000000000       2.002540050000      10.011808000000
        49    1        8.496000000000       0.000000000000      12.015008000000
        50    1        9.912000000000       2.002540050000       0.000000000000
        51    1        9.912000000000       0.000000000000       2.002784000000
        52    1        9.912000000000       2.002540050000       4.005120000000
        53    1        9.912000000000       0.000000000000       6.007904000000
        54    1        9.912000000000       2.002540050000       8.009856000000
        55    1        9.912000000000       0.000000000000      10.011808000000
        56    1        9.912000000000       2.002540050000      12.015008000000
        57    1        0.000000000000       4.004959950000       0.000000000000
        58    1        0.000000000000       6.007500000000       2.002784000000
        59    1        0.000000000000       4.004959950000       4.005120000000
        60    1        0.000000000000       6.007500000000       6.007904000000
        61    1        0.000000000000       4.004959950000       8.009856000000
        62    1       11.328000000000       6.007500000000      10.011808000000
        63    1        0.000000000000       4.004959950000      12.015008000000
        64    1        1.416000000000       6.007500000000       0.000000000000
        65    1        1.416000000000       4.004959950000       2.002784000000
        66    1        1.416000000000       6.007500000000       4.005120000000
        67    1        1.416000000000       4.004959950000       6.007904000000
        68    1        1.416000000000       6.007500000000       8.009856000000
        69    1        1.416000000000       4.004959950000      10.011808000000
        70    1        1.416000000000       6.007500000000      12.015008000000
        71    1        2.832000000000       4.004959950000       0.000000000000
        72    1        2.832000000000       6.007500000000       2.002784000000
        73    1        2.832000000000       4.004959950000       4.005120000000
        74    1        2.832000000000       6.007500000000       6.007904000000
        75    1        2.832000000000       4.004959950000       8.009856000000
        76    1        2.832000000000       6.007500000000      10.011808000000
        77    1        2.832000000000       4.004959950000      12.015008000000
        78    1        4.248000000000       6.007500000000       0.000000000000
        79    1        4.248000000000       4.004959950000       2.002784000000
        80    1        4.248000000000       6.007500000000       4.005120000000
        81    1        4.248000000000       4.004959950000       6.007904000000
        82    1        4.248000000000       6.007500000000       8.009856000000
        83    1        4.248000000000       4.004959950000      10.011808000000
        84    1        4.248000000000       6.007500000000      12.015008000000
        85    1        5.664000000000       4.004959950000       0.000000000000
        86    1        5.664000000000       6.007500000000       2.002784000000
        87    1        5.664000000000       4.004959950000       4.005120000000
        88    1        5.664000000000       6.007500000000       6.007904000000
        89    1        5.664000000000       4.004959950000       8.009856000000
        90    1        5.664000000000       6.007500000000      10.011808000000
        91    1        5.664000000000       4.004959950000      12.015008000000
        92    1        7.080000000000       6.007500000000       0.000000000000
        93    1        7.080000000000       4.004959950000       2.002784000000
        94    1        7.080000000000       6.007500000000       4.005120000000
        95    1        7.080000000000       4.004959950000       6.007904000000
        96    1        7.080000000000       6.007500000000       8.009856000000
        97    1        7.080000000000       4.004959950000      10.011808000000
        98    1        7.039196544000       5.907234825000      12.031200000000
        99    1        8.496000000000       4.004959950000       0.000000000000
       100    1        8.496000000000       6.007500000000       2.002784000000
       101    1        8.496000000000       4.004959950000       4.005120000000
       102    1        8.496000000000       6.007500000000       6.007904000000
       103    1        8.496000000000       4.004959950000       8.009856000000
       104    1        8.496000000000       6.007500000000      10.011808000000
       105    1        8.496000000000       4.004959950000      12.015008000000
       106    1        9.912000000000       6.007500000000       0.000000000000
       107    1        9.912000000000       4.004959950000       2.002784000000
       108    1        9.912000000000       6.007500000000       4.005120000000
       109    1        9.912000000000       4.004959950000       6.007904000000
       110    1        9.912000000000       6.007500000000       8.009856000000
       111    1        9.912000000000       4.004959950000      10.011808000000
       112    1        9.912000000000       6.007500000000      12.015008000000
       113    1       11.328000000000       8.010040050000       0.000000000000
       114    1        0.000000000000      10.012495995000       2.002784000000
       115    1       11.328000000000       8.010040050000       4.005120000000
       116    1        0.000000000000      10.012495995000       6.007904000000
       117    1       11.328000000000       8.010040050000       8.009856000000
       118    1        0.000000000000      10.012495995000      10.011808000000
       119    1        0.000000000000       8.010040050000      12.015008000000
       120    1        1.416000000000      10.012495995000       0.000000000000
       121    1        1.416000000000       8.010040050000       2.002784000000
       122    1        1.416000000000      10.012495995000       4.005120000000
       123    1        1.416000000000       8.010040050000       6.007904000000
       124    1        1.416000000000      10.012495995000       8.009856000000
       125    1        1.416000000000       8.010040050000      10.011808000000
       126    1        1.416000000000      10.012495995000      12.015008000000
       127    1        2.832000000000       8.010040050000       0.000000000000
       128    1        2.832000000000      10.012495995000       2.002784000000
       129    1        2.832000000000       8.010040050000       4.005120000000
       130    1        2.832000000000      10.012495995000       6.007904000000
       131    1        2.832000000000       8.010040050000       8.009856000000
       132    1        2.832000000000      10.012495995000      10.011808000000
       133    1        2.832000000000       8.010040050000      12.015008000000
       134    1        4.248000000000      10.012495995000       0.000000000000
       135    1        4.248000000000       8.010040050000       2.002784000000
       136    1        4.248000000000      10.012495995000       4.005120000000
       137    1        4.248000000000       8.010040050000       6.007904000000
       138    1        4.248000000000      10.012495995000       8.009856000000
       139    1        4.248000000000       8.010040050000      10.011808000000
       140    1        4.248000000000      10.012495995000      12.015008000000
       141    5        5.664000000000       8.010040050000       0.000000000000
       142    1        5.664000000000      10.012495995000       2.002784000000
       143    1        5.664000000000       8.010040050000       4.005120000000
       144    1        5.664000000000      10.012495995000       6.007904000000
       145    1        5.664000000000       8.010040050000       8.009856000000
       146    1        5.664000000000      10.012495995000      10.011808000000
       147    1        5.664000000000       8.010040050000      12.015008000000
       148    1        7.080000000000      10.012495995000       0.000000000000
       149    1        7.080000000000       8.010040050000       2.002784000000
       150    1        7.080000000000      10.012495995000       4.005120000000
       151    1        7.080000000000       8.010040050000       6.007904000000
       152    1        7.080000000000      10.012495995000       8.009856000000
       153    1        7.080000000000       8.010040050000      10.011808000000
       154    1        7.080000000000      10.012495995000      12.015008000000
       155    1        8.496000000000       8.010040050000       0.000000000000
       156    1        8.496000000000      10.012495995000       2.002784000000
       157    1        8.496000000000       8.010040050000       4.005120000000
       158    1        8.496000000000      10.012495995000       6.007904000000
       159    1        8.496000000000       8.010040050000       8.009856000000
       160    1        8.496000000000      10.012495995000      10.011808000000
       161    1        8.496000000000       8.010040050000      12.015008000000
       162    1        9.912000000000      10.012495995000       0.000000000000
       163    1        9.912000000000       8.010040050000       2.002784000000
       164    1        9.912000000000      10.012495995000       4.005120000000
       165    1        9.912000000000       8.010040050000       6.007904000000
       166    1        9.912000000000      10.012495995000       8.009856000000
       167    1        9.912000000000       8.010040050000      10.011808000000
       168    1        9.912000000000      10.012495995000      12.015008000000
       169    2        2.291223936000       0.230808150000      19.896384000000
       170    2        7.909458816000       9.335150370000      15.363904000000
       171    2        2.522870208000       2.636715780000      13.268288000000
       172    2        2.792703168000      10.275300090000      13.196608000000
       173    2        7.376249856000       6.637182120000      23.303904000000
       174    2        7.669735680000       1.290062565000      17.740992000000
       175    2        5.245792896000       7.391724120000      14.139200000000
       176    2        9.995272128000       5.274885375000      17.692288000000
       177    2        4.656714240000       3.485707695000      17.736512000000
       178    2        5.903779776000       4.729656690000      14.860704000000
       179    2        4.440949824000      10.625297040000      18.457408000000
       180    2        8.190076032000       6.535174770000      14.739200000000
       181    2       11.184904704000       1.093533210000      22.474688000000
       182    2        0.017116608000       9.138705120000      21.854304000000
       183    2        6.445564032000       0.787258845000      15.090400000000
       184    2        6.045402432000       7.349515425000      17.064096000000
       185    2        8.984157504000      10.969394625000      13.853408000000
       186    2        4.232945088000       8.775804060000      21.082496000000
       187    2        7.108093440000       2.322054945000      21.607200000000
       188    2        5.855635776000       6.447549375000      21.212704000000
       189    2        6.120280512000       9.239390820000      23.683904000000
       190    2        7.067244672000       4.742716995000      17.397888000000
       191    2        2.961705600000       7.649445870000      15.206784000000
       192    2        0.374843520000       3.595356585000      15.455616000000
       193    2        6.741270144000       9.596572740000      18.508000000000
       194    2       10.872897600000       6.375988035000      15.138784000000
       195    2        2.045961408000       7.557447015000      22.270912000000
       196    2        5.130179328000       1.108648080000      18.902400000000
       197    2        7.677937152000       7.051194990000      19.350400000000
       198    2        9.349394880000       7.426207170000      21.574592000000
       199    2        4.106524608000       2.199718215000      15.461696000000
       200    2       11.050803840000      11.155098465000      20.240800000000
       201    2        1.151763072000       8.714779875000      18.681504000000
       202    2        1.170227712000       5.049652185000      20.842816000000
       203    2        0.073439424000      10.301901300000      17.168096000000
       204    2        3.495107136000      11.492395560000      22.169600000000
       205    2        1.274773824000      11.196598275000      23.611104000000
       206    2        7.686444480000      11.314297215000      24.550016000000
       207    2        3.203025984000      10.605195945000      16.441792000000
       208    2       10.610405184000       2.702425815000      17.799104000000
       209    2        0.323776896000       8.966986740000      14.969216000000
       210    2        5.357045184000      10.183205115000      15.225312000000
       211    2        8.495637504000       3.414158370000      15.049216000000
       212    2        3.897556992000       5.325108075000      19.576800000000
       213    2        9.129643008000      11.040595515000      18.097696000000
       214    2        3.578719104000       7.312064670000      17.971712000000
       215    2        2.782247424000       4.914940005000      15.473792000000
       216    2        9.703417536000       0.802710135000      15.553696000000
       217    2        1.878408960000       0.619385265000      15.538208000000
       218    2        3.453465408000       9.219710250000      24.136704000000
       219    2        0.304621248000       3.667326435000      23.373600000000
       220    2        0.861970176000       2.452597920000      20.108992000000
       221    2       10.948296768000       6.757764660000      19.508896000000
       222    2       10.581903936000       6.036035625000      23.391488000000
       223    2        7.251324672000       9.998174115000      21.126496000000
       224    2        8.655294336000       0.242703000000      22.085792000000
       225    3        1.404445440000      11.793395340000      19.878016000000
       226    3        8.001464832000       8.357994450000      15.114912000000
       227    3        4.530339072000       5.681821410000      20.294784000000
       228    3        4.366876032000       4.629691890000      19.030112000000
       229    3        8.343355200000       1.992855960000      17.618816000000
       230    3        7.360379328000       1.028964600000      16.789216000000
       231    3        4.244103168000       7.684361460000      14.414688000000
       232    3        5.317034688000       6.420888090000      14.292288000000
       233    3       10.258897344000       4.307990265000      17.826208000000
       234    3        9.031757760000       5.158928610000      17.633696000000
       235    3        0.240504768000       9.735454125000      16.328992000000
       236    3        5.614927104000       3.698144910000      17.799808000000
       237    3        6.831565632000       5.026126815000      14.802208000000
       238    3        5.909908224000       3.816564750000      14.377504000000
       239    3        6.023131584000       7.308171810000      16.103392000000
       240    3        5.391969408000      10.301396670000      18.252704000000
       241    3        9.152718144000       6.587079570000      14.853792000000
       242    3        8.084102592000       6.353976555000      13.759296000000
       243    3        0.429172608000       0.402334290000      22.981600000000
       244    3       10.233296064000       0.870570855000      22.544992000000
       245    3        0.134406720000       9.798484815000      21.140896000000
       246    3        0.704295744000       8.465204295000      21.825408000000
       247    3        6.884625984000       0.638152695000      14.230016000000
       248    3        5.563203456000       1.319655510000      14.955488000000
       249    3        5.051925504000       7.259655240000      17.249504000000
       250    3        6.774687744000       8.643795255000      18.236800000000
       251    3        8.552209536000      10.208400570000      14.485792000000
       252    3        9.334861056000      11.685296385000      14.382592000000
       253    3        4.092727104000       8.834845770000      20.096512000000
       254    3        4.841168064000       8.031414735000      21.139488000000
       255    3        7.872472896000       2.984357790000      21.387104000000
       256    3        6.374095680000       2.695985775000      22.069312000000
       257    3        6.413494464000       6.616696545000      20.420192000000
       258    3        6.445586688000       6.177584340000      21.919712000000
       259    3        6.269855424000       8.248201380000      23.668192000000
       260    3        5.196164928000       9.346732830000      24.017600000000
       261    3        2.325105984000       8.363569410000      15.304096000000
       262    3        2.528024448000       6.793148835000      14.986816000000
       263    3        0.430633920000       2.828547270000      14.817408000000
       264    3        1.270865664000       4.067882505000      15.463296000000
       265    3        6.949308864000       9.689556825000      19.464416000000
       266    3        8.457246912000      10.390800285000      17.805312000000
       267    3       11.218005120000       5.896156995000      14.316096000000
       268    3       10.878595584000       5.738351985000      15.842304000000
       269    3        2.867264064000       7.950373560000      21.777088000000
       270    3        2.033715840000       6.591104595000      22.024096000000
       271    3        6.037212288000       1.129313880000      18.543296000000
       272    3        5.092921536000       1.325951370000      19.853888000000
       273    3        7.838330304000       6.284782170000      18.803904000000
       274    3        8.452681728000       6.990843645000      19.932000000000
       275    3        9.946233216000       8.291118960000      21.745888000000
       276    3        9.841188672000       6.777120825000      22.159488000000
       277    3        3.614685504000       2.720652570000      14.813408000000
       278    3        4.464795264000       2.830794075000      16.171296000000
       279    3       10.504805568000      11.318202090000      19.413792000000
       280    3       10.521797568000      11.574301815000      20.941408000000
       281    3        2.021538240000       8.347901850000      18.399584000000
       282    3        0.556023552000       7.876625490000      19.037088000000
       283    3        0.401124480000       5.616255555000      20.474400000000
       284    3        2.009564544000       5.041974600000      20.272416000000
       285    3        0.513033792000       9.686661210000      17.975296000000
       286    3        3.809368512000      10.667902230000      17.509600000000
       287    3        3.124964736000      11.851403760000      21.289696000000
       288    3        4.038930432000      10.665595350000      22.112896000000
       289    3        2.086402368000      11.282902020000      22.969792000000
       290    3        0.762476352000      10.485995130000      23.186688000000
       291    3        6.979803840000      10.662195105000      24.287488000000
       292    3        4.595520384000       2.548249335000      18.181792000000
       293    3        4.644955776000      11.485703205000      18.941792000000
       294    3        3.948895488000      10.392194025000      15.723712000000
       295    3       11.299895232000       8.001905895000      14.878016000000
       296    3        0.339579456000       9.409595310000      14.084416000000
       297    3        5.324930304000       9.900035595000      14.243904000000
       298    3        5.759812224000      11.081001960000      15.141504000000
       299    3       10.425498240000       0.759227850000      16.215904000000
       300    3        8.936885760000       4.174131150000      14.618016000000
       301    3       10.435999296000      10.598299335000      17.476512000000
       302    3        8.852662080000      11.947103235000      17.941600000000
       303    3        3.069423552000       7.037509905000      17.172000000000
       304    3        3.603334848000       6.522943500000      18.629216000000
       305    3        3.239558784000       4.563885735000      16.268096000000
       306    3        3.453442752000       4.805711640000      14.714688000000
       307    3        0.499451520000       3.906761355000      22.439104000000
       308    3        8.396732736000      10.819903995000      25.024288000000
       309    3       10.476304320000       6.088384980000      18.811392000000
       310    3       10.206301440000       7.021638090000      20.191488000000
       311    3       11.289564096000       2.703254850000      23.164416000000
       312    3        0.142098432000       6.472949085000      23.552288000000
       313    3       10.843705344000       5.060081205000      23.385696000000
       314    3        6.832313280000       9.704936025000      21.996704000000
       315    3        7.960412160000       0.968541165000      21.846496000000
       316    3        8.355464832000      11.701696860000      22.830912000000
       317    3        6.917465856000       9.378055935000      15.465504000000
       318    3        1.311136704000       7.539905115000      13.051616000000
       319    3        4.307007552000       0.428166540000      13.006016000000
       320    3        2.770443648000       9.837281250000      24.453504000000
       321    3        2.963110272000       8.404192125000      23.877792000000
       322    3       11.162169408000       2.612385405000      18.689088000000
       323    3       11.294095296000       2.833809840000      17.029312000000
       324    3        1.973666112000       1.141244775000      19.991584000000
       325    3        1.526289408000       0.611094915000      14.598688000000
       326    3        2.738691264000       1.136931390000      15.414592000000
       327    3        8.015998656000       2.972474955000      14.290112000000
       328    3        7.803247488000       6.088793490000      23.974496000000
       329    3        8.202276288000       6.766823970000      22.685088000000
       330    3        2.509106688000      11.258403435000      16.073088000000
       331    3        0.252535104000       1.324533600000      12.935616000000
       332    3        7.767371712000      10.786502295000      21.198912000000
       333    3        6.732241728000       5.704697970000      17.178784000000
       334    3        7.361251584000       4.424715990000      16.496800000000
       335    3        9.387298368000       1.710948015000      15.499904000000
       336    3        0.881522304000       3.393937125000      20.429696000000
       337    3        0.384245760000       1.969414695000      20.848896000000
       338    4        8.822404992000       3.746889765000      20.876288000000
