LAMMPS (2 Aug 2023)
OMP_NUM_THREADS environment is not set. Defaulting to 1 thread. (src/comm.cpp:98)
  using 1 OpenMP thread(s) per MPI task
Loaded 1 plugins from /work/home/baoergen22b/apprepo/deepmd/v2.2.9-dtk23.10/app/lib/deepmd_lmp
Reading data file ...
  orthogonal box = (0 0 0) to (11.328 12.015 32)
  1 by 1 by 4 MPI processor grid
  reading atoms ...
  339 atoms
  read_data CPU = 0.033 seconds
Summary of lammps deepmd module ...
  >>> Info of deepmd-kit:
  installed to:       /work/home/wys974137909/shangcheng/deepmd-kit/20240715/deepmd-kit_v2.2.9/install
  source:             v2.2.9
  source branch:      HEAD
  source commit:      be43748
  source commit at:   2024-02-04 13:44:12 +0800
  support model ver.: 1.1 
  build variant:      rocm
  build with tf inc:  /work/home/wys974137909/shangcheng/miniconda3/envs/deepmd-kit-v2.2.9/lib/python3.8/site-packages/tensorflow/include;/work/home/wys974137909/shangcheng/miniconda3/envs/deepmd-kit-v2.2.9/lib/python3.8/site-packages/tensorflow/include
  build with tf lib:  /work/home/wys974137909/shangcheng/miniconda3/envs/deepmd-kit-v2.2.9/lib/python3.8/site-packages/tensorflow/lib/libtensorflow_cc.so
  set tf intra_op_parallelism_threads: 0
  set tf inter_op_parallelism_threads: 0
  >>> Info of lammps module:
  use deepmd-kit at:  /work/home/wys974137909/shangcheng/deepmd-kit/20240715/deepmd-kit_v2.2.9/install
  source:             v2.2.9
  source branch:      HEAD
  source commit:      be43748
  source commit at:   2024-02-04 13:44:12 +0800
  build float prec:   double
  build with tf inc:  /work/home/wys974137909/shangcheng/miniconda3/envs/deepmd-kit-v2.2.9/lib/python3.8/site-packages/tensorflow/include;/work/home/wys974137909/shangcheng/miniconda3/envs/deepmd-kit-v2.2.9/lib/python3.8/site-packages/tensorflow/include
  build with tf lib:  /work/home/wys974137909/shangcheng/miniconda3/envs/deepmd-kit-v2.2.9/lib/python3.8/site-packages/tensorflow/lib/libtensorflow_cc.so
INVALID_ARGUMENT: Tensor spin_attr/ntypes_spin:0, specified in either feed_devices or fetch_devices was not found in the Graph
INVALID_ARGUMENT: Tensor spin_attr/ntypes_spin:0, specified in either feed_devices or fetch_devices was not found in the Graph
  >>> Info of model(s):
  using   1 model(s): graph-compress.pb 
  rcut in model:      6
  ntypes in model:    4
INVALID_ARGUMENT: Tensor spin_attr/ntypes_spin:0, specified in either feed_devices or fetch_devices was not found in the Graph
INVALID_ARGUMENT: Tensor spin_attr/ntypes_spin:0, specified in either feed_devices or fetch_devices was not found in the Graph
168 atoms in group fixed
171 atoms in group mobile

CITE-CITE-CITE-CITE-CITE-CITE-CITE-CITE-CITE-CITE-CITE-CITE-CITE

Your simulation uses code contributions which should be cited:
- GPU package (short-range, long-range and three-body potentials): doi:10.1016/j.cpc.2010.12.021, doi:10.1016/j.cpc.2011.10.012, doi:10.1016/j.cpc.2013.08.002, doi:10.1016/j.commatsci.2014.10.068, doi:10.1016/j.cpc.2016.10.020, doi:10.3233/APC200086
- USER-DEEPMD package:
The log file lists these citations in BibTeX format.

CITE-CITE-CITE-CITE-CITE-CITE-CITE-CITE-CITE-CITE-CITE-CITE-CITE

Generated 0 of 6 mixed pair_coeff terms from geometric mixing rule
Neighbor list info ...
  update: every = 1 steps, delay = 0 steps, check = yes
  max neighbors/atom: 2000, page size: 100000
  master list distance cutoff = 8
  ghost atom cutoff = 8
  binsize = 4, bins = 3 4 8
  1 neighbor lists, perpetual/occasional/extra = 1 0 0
  (1) pair deepmd, perpetual
      attributes: full, newton on
      pair build: full/bin/atomonly
      stencil: full/bin/3d
      bin: standard
Setting up Verlet run ...
  Unit style    : metal
  Current step  : 0
  Time step     : 0.0005
colvars: Creating proxy instance
colvars: ----------------------------------------------------------------------
colvars: Initializing the collective variables module, version 2023-05-01.
colvars: Please cite Fiorin et al, Mol Phys 2013:
colvars:   https://doi.org/10.1080/00268976.2013.813594
colvars: as well as all other papers listed below for individual features used.
colvars: This version was built with the C++11 standard or higher.
colvars: Using LAMMPS interface, version "2023-04-12".
colvars: ----------------------------------------------------------------------
colvars: Reading new configuration from file "pmf.in":
colvars: # units = "" [default]
colvars: # smp = on [default]
colvars: # colvarsTrajFrequency = 100 [default]
colvars: # colvarsRestartFrequency = 0 [default]
colvars: # scriptedColvarForces = off [default]
colvars: # scriptingAfterBiases = off [default]
colvars: ----------------------------------------------------------------------
colvars:   Initializing a new collective variable.
colvars:   # name = "d"
colvars:   Initializing a new "distance" component.
colvars:     # name = "" [default]
colvars:     # componentCoeff = 1 [default]
colvars:     # componentExp = 1 [default]
colvars:     # period = 0 [default]
colvars:     # wrapAround = 0 [default]
colvars:     # forceNoPBC = off [default]
colvars:     # scalable = on [default]
colvars:       Initializing atom group "group1".
colvars:       # name = "" [default]
colvars:       # centerToOrigin = off [default]
colvars:       # centerToReference = off [default]
colvars:       # rotateToReference = off [default]
colvars:       # atomsOfGroup = "" [default]
colvars:       # indexGroup = "" [default]
colvars:       # psfSegID =  [default]
colvars:       # atomsFile = "" [default]
colvars:       # dummyAtom = ( 0 , 0 , 0 ) [default]
colvars:       # enableFitGradients = on [default]
colvars:       # printAtomIDs = off [default]
colvars:       Atom group "group1" defined with 1 atoms requested.
colvars:       Initializing atom group "group2".
colvars:       # name = "" [default]
colvars:       # centerToOrigin = off [default]
colvars:       # centerToReference = off [default]
colvars:       # rotateToReference = off [default]
colvars:       # atomsOfGroup = "" [default]
colvars:       # indexGroup = "" [default]
colvars:       # psfSegID =  [default]
colvars:       # atomsFile = "" [default]
colvars:       # dummyAtom = ( 0 , 0 , 0 ) [default]
colvars:       # enableFitGradients = on [default]
colvars:       # printAtomIDs = off [default]
colvars:       Atom group "group2" defined with 1 atoms requested.
colvars:     # oneSiteSystemForce = off [default]
colvars:     # oneSiteTotalForce = off [default]
colvars:   All components initialized.
colvars:   # timeStepFactor = 1 [default]
colvars:   # width = 0.02
colvars:   # lowerBoundary = 0.3
colvars:   # upperBoundary = 4
colvars:   # hardLowerBoundary = on
colvars:   # hardUpperBoundary = on
colvars:   # expandBoundaries = off [default]
colvars:   # extendedLagrangian = off [default]
colvars:   # outputValue = on [default]
colvars:   # outputVelocity = off [default]
colvars:   # outputTotalForce = on
colvars:   # outputAppliedForce = on
colvars:   # subtractAppliedForce = off [default]
colvars:   # runAve = off [default]
colvars:   # corrFunc = off [default]
colvars: ----------------------------------------------------------------------
colvars: Collective variables initialized, 1 in total.
colvars: ----------------------------------------------------------------------
colvars:   Initializing a new "metadynamics" instance.
colvars:   # name = "metadynamics1" [default]
colvars:   # colvars = { d }
colvars:   # stepZeroData = off [default]
colvars:   # outputEnergy = off [default]
colvars:   # outputFreq = 0 [default]
colvars:   # timeStepFactor = 1 [default]
colvars:   # writeTISamples = on
colvars:   # writeTIPMF = on
colvars:   # hillWeight = 0.08
colvars:   # newHillFrequency = 200
colvars:   # gaussianSigmas =  [default]
colvars:   # hillWidth = 1
colvars:   Half-widths of the Gaussian hills (sigma's):
colvars:   d: 0.01
colvars:   # multipleReplicas = off [default]
colvars:   # useGrids = on [default]
colvars:   # gridsUpdateFrequency = 200 [default]
colvars:   # rebinGrids = off [default]
colvars:   # writeFreeEnergyFile = on [default]
colvars:   # keepHills = off [default]
colvars:   # keepFreeEnergyFiles = off [default]
colvars:   # writeHillsTrajectory = off [default]
colvars:   # wellTempered = off [default]
colvars:   # biasTemperature = 800
colvars:   # ebMeta = off [default]
colvars: ----------------------------------------------------------------------
colvars: Collective variables biases initialized, 1 in total.
colvars: ----------------------------------------------------------------------
colvars: Collective variables module (re)initialized.
colvars: ----------------------------------------------------------------------
colvars: Re-initialized atom group for variable "d":0/0. 1 atoms: total mass = 1.008, total charge = 2.34002e-310.
colvars: Re-initialized atom group for variable "d":0/1. 1 atoms: total mass = 1.008, total charge = 3.16202e-322.
colvars: The restart output state file will be "rest.colvars.state".
colvars: The final output state file will be "out.colvars.state".
Per MPI rank memory allocation (min/avg/max) = 3.124 | 3.153 | 3.169 Mbytes
   Step          Temp         c_mTemp         PotEng         KinEng         TotEng         Press     
         0   149.9571       298.15        -2246.4242      6.5516151     -2239.8725     -14917.607    
        50   170.26374      338.52438     -2243.7831      7.4388107     -2236.3443     -15973.328    
       100   180.27753      358.43415     -2244.2152      7.8763124     -2236.3389     -18881.711    
       150   191.86534      381.47344     -2244.7719      8.3825832     -2236.3893     -14363.81     
       200   196.13974      389.97196     -2244.8965      8.5693314     -2236.3271     -16129.647    
       250   166.13421      330.31391     -2243.3374      7.258392      -2236.079      -17146.324    
       300   210.90067      419.32015     -2245.341       9.2142352     -2236.1267     -14038.199    
       350   211.11049      419.73732     -2245.3803      9.2234022     -2236.1569     -14821.223    
       400   196.78782      391.26049     -2244.735       8.5976459     -2236.1373     -15561.901    
       450   205.20464      407.99511     -2244.7141      8.9653762     -2235.7487     -15247.209    
       500   198.82539      395.31166     -2244.471       8.6866673     -2235.7843     -16845.373    
       550   206.80746      411.1819      -2244.8629      9.0354035     -2235.8275     -16592.58     
       600   228.66211      454.63408     -2245.8571      9.9902315     -2235.8669     -14943.488    
       650   202.94724      403.50686     -2244.7802      8.8667503     -2235.9134     -11857.25     
       700   215.73535      428.93264     -2245.2793      9.4254622     -2235.8538     -13560.149    
       750   208.69773      414.94019     -2245.0017      9.1179889     -2235.8837     -14220.508    
       800   194.17156      386.05875     -2244.457       8.4833417     -2235.9737     -15933.917    
       850   208.55537      414.65714     -2245.0897      9.1117691     -2235.9779     -16070.569    
       900   193.99663      385.71095     -2244.5606      8.4756991     -2236.0849     -12797.271    
       950   214.87207      427.21623     -2245.2371      9.3877455     -2235.8494     -15572.343    
      1000   186.8443       371.49043     -2244.0902      8.1632142     -2235.927      -12922.3      
      1050   201.97333      401.5705      -2244.4202      8.8242005     -2235.596      -17392.653    
      1100   201.79565      401.21723     -2243.3956      8.8164377     -2234.5791     -10829.417    
      1150   211.50847      420.52861     -2243.8856      9.2407902     -2234.6448     -14036.957    
      1200   243.26364      483.66536     -2244.8872      10.628171     -2234.259      -16274.831    
      1250   211.13663      419.7893      -2242.9457      9.2245443     -2233.7212     -13635.523    
      1300   207.76267      413.08107     -2243.2124      9.0771363     -2234.1353     -16240.861    
      1350   214.6401       426.75502     -2243.6907      9.3776107     -2234.3131     -14072.392    
      1400   221.75136      440.89388     -2244.6823      9.6883012     -2234.994      -15844.864    
      1450   215.7829       429.02718     -2244.5029      9.4275396     -2235.0754     -16798.228    
      1500   202.15189      401.92552     -2243.9827      8.8320017     -2235.1507     -14785.043    
      1550   194.58994      386.89059     -2243.6868      8.5016207     -2235.1852     -15757.231    
      1600   205.93843      409.45405     -2244.247       8.9974352     -2235.2495     -17857.392    
      1650   186.9158       371.63259     -2243.4047      8.166338      -2235.2383     -19691.757    
      1700   198.07251      393.81475     -2243.9968      8.6537737     -2235.3431     -15738.465    
      1750   203.14452      403.8991      -2244.2634      8.8753696     -2235.388      -18292.976    
      1800   193.42102      384.56649     -2243.9979      8.4505505     -2235.5473     -18813.174    
      1850   202.33064      402.28092     -2244.3277      8.8398114     -2235.4879     -16108.846    
      1900   170.98065      339.94977     -2242.9991      7.4701327     -2235.529      -19016.418    
      1950   199.578        396.80802     -2244.218       8.7195485     -2235.4985     -17707.303    
      2000   209.95058      417.43115     -2244.6241      9.1727259     -2235.4514     -15007.959    
      2050   240.91497      478.99564     -2244.6514      10.525558     -2234.1258     -19985.518    
      2100   230.18115      457.65429     -2244.1116      10.056598     -2234.055      -13822.311    
      2150   230.96324      459.20926     -2244.1605      10.090768     -2234.0698     -17163.494    
      2200   224.44445      446.24839     -2243.731       9.8059623     -2233.925      -16196.785    
      2250   222.62397      442.62883     -2243.8018      9.7264253     -2234.0754     -14411.687    
      2300   218.24873      433.92983     -2243.4271      9.5352715     -2233.8918     -15600.554    
      2350   213.75086      424.987       -2241.9491      9.3387597     -2232.6104     -15063.165    
      2400   223.45039      444.27195     -2242.4824      9.7625317     -2232.7198     -12104.362    
      2450   240.83999      478.84656     -2243.113       10.522282     -2232.5907     -14739.007    
      2500   234.83459      466.90642     -2243.0323      10.259907     -2232.7724     -17697.588    
      2550   222.87202      443.12202     -2242.5934      9.7372628     -2232.8561     -18949.79     
      2600   240.58414      478.33787     -2241.5467      10.511104     -2231.0356     -13604.479    
      2650   235.3266       467.88465     -2241.0994      10.281402     -2230.818      -20212.873    
      2700   236.88803      470.98915     -2241.3959      10.349621     -2231.0463     -15708.101    
      2750   242.49055      482.12827     -2241.7352      10.594395     -2231.1408     -15846.785    
      2800   252.18775      501.40859     -2242.2716      11.018065     -2231.2536     -16212.427    
      2850   230.28043      457.85168     -2241.4         10.060936     -2231.339      -13946.868    
      2900   232.63677      462.53664     -2241.6043      10.163884     -2231.4404     -11419.457    
      2950   233.19434      463.64522     -2241.7279      10.188244     -2231.5397     -15307.934    
      3000   235.63992      468.50761     -2241.9273      10.295092     -2231.6322     -16451.442    
      3050   251.11395      499.27362     -2242.7056      10.971151     -2231.7345     -17456.773    
      3100   225.03072      447.41403     -2241.6661      9.8315764     -2231.8345     -16406.881    
      3150   239.29634      475.77743     -2242.3861      10.45484      -2231.9313     -17186.867    
      3200   229.75008      456.79721     -2242.066       10.037765     -2232.0282     -11592.628    
      3250   230.95647      459.1958      -2242.2291      10.090472     -2232.1386     -17712.167    
      3300   236.41673      470.05209     -2242.5635      10.32903      -2232.2344     -18787.73     
      3350   241.56329      480.28465     -2242.889       10.553883     -2232.3351     -16709.719    
      3400   236.15608      469.53384     -2242.7651      10.317642     -2232.4475     -17320.881    
      3450   232.35798      461.98233     -2242.6855      10.151703     -2232.5338     -18221.536    
      3500   219.00178      435.42707     -2242.1904      9.5681723     -2232.6222     -19973.794    
      3550   257.24288      511.45938     -2243.9866      11.238923     -2232.7477     -20827.007    
      3600   262.33231      521.57836     -2244.3427      11.46128      -2232.8815     -15068.858    
      3650   246.36042      489.82249     -2243.7496      10.763469     -2232.9861     -18020.058    
      3700   232.29654      461.86018     -2243.2599      10.149019     -2233.1109     -18376.195    
      3750   250.61919      498.28991     -2244.1609      10.949534     -2233.2114     -14708.917    
      3800   247.83595      492.75619     -2244.1576      10.827935     -2233.3296     -17574.86     
      3850   228.38452      454.08215     -2243.4142      9.9781033     -2233.4361     -20359.979    
      3900   248.83102      494.73462     -2244.4163      10.87141      -2233.5448     -19298.513    
      3950   229.52163      456.343       -2243.6826      10.027784     -2233.6549     -18098.819    
      4000   240.01537      477.20703     -2244.2574      10.486254     -2233.7711     -19351.605    
      4050   237.51741      472.24051     -2244.2661      10.377119     -2233.889      -21099.723    
      4100   237.28768      471.78374     -2244.365       10.367082     -2233.9979     -22055.794    
      4150   222.98275      443.34218     -2243.8536      9.7421007     -2234.1115     -24029.832    
      4200   231.13261      459.54602     -2244.3262      10.098167     -2234.228      -19693.259    
      4250   242.17144      481.4938      -2244.9188      10.580453     -2234.3383     -19443.263    
      4300   234.64335      466.52619     -2244.6902      10.251551     -2234.4386     -19575.82     
      4350   255.31841      507.63307     -2245.7165      11.154843     -2234.5617     -21786.974    
      4400   229.66576      456.62957     -2244.6997      10.034081     -2234.6656     -19285.323    
      4450   227.57068      452.46406     -2244.7219      9.9425469     -2234.7794     -19006.654    
      4500   220.61301      438.63056     -2244.5192      9.6385665     -2234.8807     -17027.514    
      4550   222.67555      442.73138     -2244.7262      9.7286788     -2234.9975     -17579.188    
      4600   224.18153      445.72564     -2244.8917      9.7944753     -2235.0972     -18846.606    
      4650   208.32066      414.1905      -2244.2923      9.101515      -2235.1908     -19902.52     
      4700   244.03104      485.19113     -2245.9597      10.661699     -2235.298      -21837.005    
      4750   207.52768      412.61385     -2244.4731      9.0668695     -2235.4062     -14663.483    
      4800   234.01223      465.27138     -2245.7365      10.223978     -2235.5125     -19126.433    
      4850   227.87298      453.06511     -2245.5746      9.9557544     -2235.6188     -19909.876    
      4900   193.2286       384.18392     -2244.1528      8.4421438     -2235.7107     -18758.607    
      4950   211.63507      420.78031     -2245.0596      9.2463211     -2235.8133     -23212.088    
      5000   205.13906      407.86473     -2244.872       8.9625112     -2235.9095     -16018.642    
      5050   217.7435       432.92531     -2245.5217      9.5131981     -2236.0085     -20162.831    
      5100   217.5884       432.61694     -2245.6126      9.5064219     -2236.1062     -18318.49     
      5150   222.61469      442.61039     -2245.9379      9.7260201     -2236.2119     -23338.991    
      5200   219.9148       437.24236     -2245.9224      9.6080619     -2236.3144     -17618.56     
      5250   223.92569      445.21696     -2246.1938      9.7832975     -2236.4105     -20301.124    
      5300   220.64193      438.68807     -2246.1589      9.6398301     -2236.5191     -20034.76     
      5350   217.33289      432.10892     -2246.1119      9.4952585     -2236.6167     -17565.616    
      5400   224.58547      446.52875     -2246.5389      9.8121231     -2236.7268     -20239.711    
      5450   207.62869      412.81468     -2245.896       9.0712826     -2236.8247     -19412.138    
      5500   229.84834      456.99257     -2246.9819      10.042057     -2236.9398     -20444.967    
      5550   203.37941      404.36612     -2245.9237      8.8856319     -2237.0381     -21902.297    
      5600   194.29771      386.30957     -2245.6199      8.4888532     -2237.1311     -17320.714    
      5650   204.80122      407.19301     -2246.1855      8.9477507     -2237.2378     -18693.058    
      5700   193.02694      383.78298     -2245.7559      8.4333333     -2237.3226     -22083.194    
      5750   221.97218      441.33293     -2247.1283      9.697949      -2237.4304     -20489.116    
      5800   228.16337      453.64247     -2247.492       9.9684416     -2237.5236     -22764.479    
      5850   216.90282      431.25384     -2247.1049      9.4764687     -2237.6285     -21600.817    
      5900   181.9533       361.76597     -2245.6643      7.9495267     -2237.7147     -19801.65     
      5950   217.99268      433.42073     -2247.3571      9.5240846     -2237.833      -23703.524    
      6000   209.50474      416.54472     -2247.0855      9.1532472     -2237.9322     -22310.349    
      6050   217.89543      433.22738     -2247.5475      9.5198359     -2238.0276     -18418.496    
      6100   214.52152      426.51925     -2247.4941      9.3724298     -2238.1217     -18353.99     
      6150   210.26235      418.05103     -2247.4051      9.1863472     -2238.2188     -19401.237    
      6200   194.87217      387.45172     -2246.8358      8.5139511     -2238.3218     -21468.117    
      6250   207.72922      413.01457     -2247.4834      9.075675      -2238.4078     -23056.987    
      6300   212.82576      423.14769     -2247.8113      9.2983424     -2238.5129     -22203.182    
      6350   217.79024      433.01823     -2248.138       9.5152399     -2238.6227     -17737.884    
      6400   196.73447      391.15441     -2247.3022      8.595315      -2238.7069     -21916.131    
      6450   198.71692      395.096       -2247.4957      8.6819282     -2238.8137     -21283.529    
      6500   214.45266      426.38236     -2248.2832      9.3694217     -2238.9138     -21910.071    
      6550   200.61396      398.86776     -2247.7774      8.7648097     -2239.0126     -20195.65     
      6600   220.30257      438.01335     -2248.7404      9.6250037     -2239.1154     -20261.319    
      6650   213.05885      423.61112     -2248.5323      9.3085259     -2239.2238     -20559.287    
      6700   197.98463      393.64002     -2247.9683      8.6499343     -2239.3184     -22390.09     
      6750   204.3116       406.21954     -2248.3506      8.9263594     -2239.4243     -19654.594    
      6800   197.78882      393.25072     -2248.1486      8.6413797     -2239.5073     -21492.586    
      6850   218.57422      434.57698     -2249.1576      9.5494923     -2239.6081     -23305.376    
      6900   204.96079      407.51027     -2248.6631      8.9547222     -2239.7084     -24319.108    
      6950   189.76559      377.29865     -2248.0872      8.2908453     -2239.7964     -23705.266    
      7000   207.52859      412.61567     -2248.9588      9.0669095     -2239.8919     -20800.017    
      7050   204.73825      407.06782     -2248.938       8.9449998     -2239.993      -22139.372    
      7100   215.44596      428.35725     -2249.4986      9.4128185     -2240.0858     -18069.74     
      7150   213.22867      423.94877     -2249.5101      9.3159455     -2240.1941     -20907.685    
      7200   207.14354      411.8501      -2249.3417      9.0500867     -2240.2916     -24551.031    
      7250   201.63123      400.89033     -2249.2036      8.8092543     -2240.3943     -22509.048    
      7300   221.87252      441.13478     -2250.1942      9.6935947     -2240.5006     -16904.872    
      7350   210.59594      418.71427     -2249.784       9.2009215     -2240.5831     -20907.625    
      7400   211.09528      419.70709     -2249.9133      9.2227379     -2240.6906     -17745.529    
      7450   217.78045      432.99878     -2250.2985      9.5148125     -2240.7837     -19863.896    
      7500   175.43112      348.79835     -2248.5401      7.6645733     -2240.8755     -16722.604    
      7550   183.21629      364.27709     -2248.973       8.0047066     -2240.9683     -21571.722    
      7600   208.89098      415.32442     -2250.1945      9.1264321     -2241.0681     -18018.037    
      7650   190.47428      378.70768     -2249.4756      8.3218076     -2241.1538     -21320.642    
      7700   206.92914      411.42383     -2250.2948      9.0407196     -2241.2541     -21662.924    
      7750   194.23215      386.17921     -2249.8371      8.4859887     -2241.3512     -21734.331    
      7800   203.40772      404.42241     -2250.3351      8.8868688     -2241.4482     -25585.557    
      7850   216.95046      431.34856     -2251.0245      9.4785501     -2241.5459     -19910.07     
      7900   208.6806       414.90613     -2250.7627      9.1172405     -2241.6454     -24824.669    
      7950   205.18429      407.95466     -2250.704       8.9644873     -2241.7395     -22495.395    
      8000   204.45646      406.50755     -2250.7733      8.9326882     -2241.8406     -22313.748    
      8050   214.29498      426.06884     -2251.3021      9.3625325     -2241.9395     -22507.292    
      8100   215.80919      429.07945     -2251.4644      9.4286882     -2242.0357     -19914.907    
      8150   200.25091      398.14593     -2250.8857      8.7489481     -2242.1367     -18875.294    
      8200   196.57871      390.84474     -2250.8096      8.58851       -2242.2211     -22144.797    
      8250   177.85664      353.62084     -2250.086       7.7705438     -2242.3154     -21235.96     
      8300   190.78317      379.32183     -2250.7346      8.335303      -2242.3993     -23964.559    
      8350   185.11198      368.04616     -2250.5743      8.0875291     -2242.4868     -21856.294    
      8400   197.47643      392.62961     -2251.2073      8.6277314     -2242.5796     -21113.915    
      8450   198.51556      394.69564     -2251.3401      8.6731307     -2242.667      -24286.814    
      8500   198.45395      394.57315     -2251.4261      8.6704391     -2242.7557     -22327.465    
      8550   187.44927      372.69325     -2251.0287      8.1896452     -2242.8391     -21303.626    
      8600   198.37467      394.41552     -2251.601       8.6669753     -2242.9341     -22207.054    
      8650   186.90372      371.60857     -2251.1849      8.1658102     -2243.0191     -24040.88     
      8700   180.99165      359.85398     -2251.0218      7.9075122     -2243.1143     -22941.158    
      8750   196.40717      390.50367     -2251.7775      8.5810154     -2243.1965     -19047.019    
      8800   182.04643      361.95114     -2251.24        7.9535956     -2243.2864     -25482.474    
      8850   178.53363      354.96687     -2251.1685      7.8001216     -2243.3684     -21650.597    
      8900   180.11186      358.10475     -2251.3291      7.8690743     -2243.4601     -25453.705    
      8950   190.22124      378.20458     -2251.8502      8.3107524     -2243.5394     -17690.373    
      9000   181.97369      361.8065      -2251.5682      7.9504174     -2243.6178     -23113.227    
      9050   196.29662      390.28387     -2252.2795      8.5761855     -2243.7033     -18958.394    
      9100   201.75009      401.12665     -2252.6109      8.814447      -2243.7965     -21303.183    
      9150   190.17039      378.10349     -2252.1994      8.308531      -2243.8909     -21794.935    
      9200   176.82612      351.57193     -2251.6863      7.7255206     -2243.9608     -21008.728    
      9250   164.31207      326.69105     -2251.2198      7.1787826     -2244.041      -22085.484    
      9300   185.48451      368.78685     -2252.2312      8.1038051     -2244.1274     -23077.887    
      9350   197.62259      392.9202      -2252.848       8.6341168     -2244.2138     -21602.881    
      9400   172.82053      343.60789     -2251.8385      7.5505169     -2244.288      -19630.567    
      9450   183.04703      363.94056     -2252.3729      7.9973116     -2244.3756     -23325.873    
      9500   186.79855      371.39947     -2252.6122      8.1612154     -2244.451      -23561.352    
      9550   189.62535      377.01981     -2252.8308      8.284718      -2244.5461     -19622.724    
      9600   193.68083      385.08305     -2253.0895      8.4619015     -2244.6276     -23070.694    
      9650   193.45918      384.64237     -2253.1633      8.4522178     -2244.711      -22580.442    
      9700   212.3348       422.17155     -2254.08        9.2768924     -2244.8031     -22228.046    
      9750   178.55093      355.00125     -2252.6779      7.8008773     -2244.877      -22437.001    
      9800   176.02391      349.97695     -2252.653       7.6904722     -2244.9626     -24333.384    
      9850   184.42116      366.67266     -2253.0963      8.0573475     -2245.0389     -24016.526    
      9900   176.41989      350.76426     -2252.8258      7.7077726     -2245.1181     -21551.666    
      9950   185.09946      368.02129     -2253.2889      8.0869824     -2245.2019     -20484.909    
     10000   183.03466      363.91598     -2253.2682      7.9967715     -2245.2714     -21054.105    
     10050   202.59286      402.80228     -2254.2186      8.8512679     -2245.3674     -24723.503    
     10100   184.68637      367.19996     -2253.5145      8.0689345     -2245.4456     -24336.743    
     10150   179.30197      356.4945      -2253.3501      7.8336902     -2245.5164     -22892.503    
     10200   178.19599      354.29555     -2253.3775      7.7853701     -2245.5921     -23429.186    
     10250   186.10675      370.02401     -2253.8058      8.1309907     -2245.6748     -22500.561    
     10300   189.63118      377.03141     -2254.0456      8.2849729     -2245.7607     -22153.144    
     10350   170.53895      339.07157     -2253.2915      7.4508348     -2245.8407     -21804.534    
     10400   160.10715      318.33069     -2252.8976      6.99507       -2245.9026     -24894.913    
     10450   171.50878      340.99982     -2253.4706      7.4932066     -2245.9774     -21952.605    
     10500   181.46142      360.78799     -2253.9827      7.9280364     -2246.0547     -25288.109    
     10550   179.07213      356.03752     -2253.9525      7.8236485     -2246.1288     -21362.737    
     10600   185.59934      369.01516     -2254.3107      8.1088219     -2246.2019     -22709.143    
     10650   183.01585      363.87857     -2254.269       7.9959494     -2246.2731     -22416.572    
     10700   180.58468      359.04484     -2254.2465      7.8897319     -2246.3567     -21173.828    
     10750   175.50546      348.94616     -2254.0963      7.6678213     -2246.4284     -22008.247    
     10800   166.12332      330.29225     -2253.7617      7.257916      -2246.5037     -22793.483    
     10850   166.20288      330.45044     -2253.8363      7.2613922     -2246.5749     -23103.31     
     10900   165.59446      329.24074     -2253.8754      7.23481       -2246.6405     -20507.406    
     10950   164.9512       327.9618      -2253.9092      7.2067062     -2246.7025     -20862.176    
     11000   180.05382      357.98935     -2254.6423      7.8665385     -2246.7758     -23176.065    
     11050   173.65762      345.27221     -2254.4217      7.5870891     -2246.8346     -20786.95     
     11100   174.98919      347.91968     -2254.5535      7.6452652     -2246.9082     -22778.373    
     11150   170.34186      338.6797      -2254.4207      7.4422237     -2246.9784     -19233.815    
     11200   177.97796      353.86206     -2254.8256      7.7758444     -2247.0498     -21691.181    
     11250   166.216        330.47652     -2254.3723      7.2619653     -2247.1103     -24875.959    
     11300   159.6359       317.39372     -2254.1426      6.974481      -2247.1681     -24509.459    
     11350   152.43292      303.07251     -2253.8915      6.6597834     -2247.2317     -19751.664    
     11400   163.84681      325.76602     -2254.4527      7.1584557     -2247.2942     -21713.904    
     11450   146.26778      290.81476     -2253.7339      6.3904288     -2247.3435     -20188.002    
     11500   164.71787      327.49789     -2254.6068      7.1965122     -2247.4103     -16960.429    
     11550   156.17171      310.50611     -2254.2872      6.8231311     -2247.464      -22498.275    
     11600   178.03544      353.97634     -2255.2993      7.7783556     -2247.5209     -19814.143    
     11650   160.99386      320.09368     -2254.6178      7.0338104     -2247.584      -23416.063    
     11700   170.02907      338.05779     -2255.0705      7.4285578     -2247.6419     -25869.93     
     11750   167.96395      333.95185     -2255.044       7.3383331     -2247.7056     -22180.76     
     11800   165.83656      329.72209     -2254.9983      7.2453873     -2247.7529     -22471.953    
     11850   166.00665      330.06029     -2255.0652      7.2528189     -2247.8124     -23510.84     
     11900   157.44531      313.03832     -2254.7441      6.8787744     -2247.8653     -25276.438    
     11950   158.63613      315.40595     -2254.8548      6.9308012     -2247.924      -19993.347    
     12000   170.29852      338.59353     -2255.4166      7.4403303     -2247.9762     -19127.897    
     12050   158.63944      315.41254     -2254.9628      6.930946      -2248.0318     -23810.877    
     12100   146.38788      291.05355     -2254.4721      6.3956761     -2248.0764     -21510.533    
     12150   162.69211      323.4702      -2255.2411      7.1080069     -2248.1331     -22851.082    
     12200   158.41051      314.95737     -2255.1071      6.920944      -2248.1861     -24512.259    
     12250   162.28182      322.65444     -2255.3278      7.0900812     -2248.2377     -25336.287    
     12300   172.32173      342.61615     -2255.8214      7.5287242     -2248.2927     -22345.973    
     12350   152.04669      302.30459     -2254.9858      6.6429091     -2248.3429     -20052.053    
     12400   160.11718      318.35062     -2255.3844      6.9955081     -2248.3889     -23270.937    
     12450   160.38073      318.87463     -2255.4424      7.0070228     -2248.4354     -22445.47     
     12500   152.82705      303.85613     -2255.1649      6.6770028     -2248.4879     -21635.434    
     12550   149.81121      297.85994     -2255.0797      6.5452413     -2248.5345     -18884.636    
     12600   165.74868      329.54738     -2255.8297      7.2415482     -2248.5882     -21054.887    
     12650   157.93917      314.02022     -2255.5405      6.9003509     -2248.6402     -23993.843    
     12700   157.02433      312.20132     -2255.5523      6.8603818     -2248.6919     -22326.975    
     12750   157.03974      312.23195     -2255.5985      6.861055      -2248.7374     -25638.938    
     12800   157.83013      313.80344     -2255.6816      6.8955872     -2248.786      -23750.374    
     12850   165.72191      329.49416     -2256.0794      7.2403786     -2248.839      -24889.766    
     12900   162.98951      324.06149     -2256.0057      7.1209999     -2248.8847     -22077.752    
     12950   150.27355      298.77918     -2255.4889      6.5654407     -2248.9235     -22924.56     
     13000   151.84002      301.89369     -2255.6092      6.6338798     -2248.9753     -21988.186    
     13050   172.63874      343.24643     -2256.5676      7.5425742     -2249.025      -24160.679    
     13100   167.84851      333.72233     -2256.4114      7.3332895     -2249.0781     -20941.749    
     13150   154.57205      307.32561     -2255.8673      6.753242      -2249.114      -24198.916    
     13200   153.4267       305.04838     -2255.863       6.7032016     -2249.1598     -23980.053    
     13250   162.06607      322.22547     -2256.2784      7.080655      -2249.1978     -23664.698    
     13300   149.7304       297.69928     -2255.7871      6.5417108     -2249.2453     -21689.953    
     13350   150.2131       298.65899     -2255.8563      6.5627997     -2249.2935     -21866.047    
     13400   137.02973      272.44734     -2255.3199      5.986819      -2249.3331     -25780.862    
     13450   144.7542       287.80541     -2255.7052      6.3243007     -2249.3809     -25211.973    
     13500   157.82923      313.80165     -2256.3178      6.895548      -2249.4223     -23804.095    
     13550   150.80369      299.83321     -2256.0571      6.5886024     -2249.4685     -24077.212    
     13600   153.6775       305.54704     -2256.2181      6.7141592     -2249.504      -24138.812    
     13650   151.52913      301.27557     -2256.1644      6.6202971     -2249.5441     -25090.766    
     13700   145.20224      288.69623     -2255.9299      6.3438757     -2249.5861     -21215.845    
     13750   145.07969      288.45255     -2255.964       6.3385212     -2249.6255     -24569.327    
     13800   154.56687      307.31531     -2256.4195      6.7530156     -2249.6665     -21358.563    
     13850   152.56552      303.33616     -2256.367       6.6655769     -2249.7015     -26937.515    
     13900   146.10217      290.48549     -2256.1166      6.3831935     -2249.7334     -24676.376    
     13950   147.15892      292.58655     -2256.2007      6.4293626     -2249.7713     -27012.164    
     14000   135.65456      269.71317     -2255.7247      5.9267379     -2249.798      -25736.956    
     14050   138.59094      275.5514      -2255.8958      6.0550283     -2249.8408     -23829.602    
     14100   142.14167      282.61109     -2256.0819      6.2101595     -2249.8717     -22947.988    
     14150   136.59123      271.57551     -2255.8676      5.9676613     -2249.8999     -25341.671    
     14200   150.95437      300.13281     -2256.5413      6.5951858     -2249.9462     -27062.273    
     14250   145.40587      289.10109     -2256.3267      6.3527722     -2249.9739     -23129.368    
     14300   156.4752       311.10952     -2256.8478      6.8363905     -2250.0115     -24970.346    
     14350   135.5568       269.51882     -2255.9533      5.9224672     -2250.0308     -24625.436    
     14400   134.28262      266.98545     -2255.9302      5.8667981     -2250.0634     -25240.13     
     14450   157.94283      314.02751     -2256.9959      6.9005111     -2250.0954     -25992.452    
     14500   143.36103      285.03545     -2256.3885      6.263433      -2250.1251     -27622.159    
     14550   145.12847      288.54955     -2256.4951      6.3406526     -2250.1544     -25603.113    
     14600   151.35657      300.93247     -2256.7953      6.6127576     -2250.1825     -26804.987    
     14650   165.18955      328.43568     -2257.4297      7.2171195     -2250.2126     -24042.442    
     14700   140.49275      279.33264     -2256.3822      6.1381182     -2250.244      -24768.398    
     14750   141.30892      280.95539     -2256.4428      6.1737768     -2250.269      -25178.287    
     14800   145.93837      290.15981     -2256.6675      6.3760369     -2250.2915     -21984        
     14850   162.13529      322.36311     -2257.4067      7.0836794     -2250.323      -24975.332    
     14900   147.80807      293.87723     -2256.8044      6.4577243     -2250.3467     -24196.935    
     14950   147.28774      292.84269     -2256.8171      6.4349911     -2250.3821     -24688.937    
     15000   148.37029      294.99504     -2256.8878      6.4822874     -2250.4055     -27247.887    
     15050   158.27488      314.6877      -2257.3491      6.9150183     -2250.4341     -20839.165    
     15100   137.11303      272.61296     -2256.4493      5.9904585     -2250.4588     -23033.729    
     15150   140.2569       278.86371     -2256.6084      6.1278138     -2250.4805     -25269.322    
     15200   145.07682      288.44685     -2256.8471      6.338396      -2250.5087     -27386.549    
     15250   143.08512      284.48689     -2256.7831      6.2513789     -2250.5317     -27899.424    
     15300   146.55757      291.39093     -2256.9556      6.4030898     -2250.5525     -25889.841    
     15350   150.13512      298.50395     -2257.1362      6.5593928     -2250.5768     -24516.46     
     15400   141.1176       280.575       -2256.7668      6.1654181     -2250.6014     -27394.91     
     15450   150.01863      298.27234     -2257.1857      6.5543034     -2250.6314     -22890.626    
     15500   141.64452      281.62263     -2256.8435      6.188439      -2250.6551     -26620.704    
     15550   138.90247      276.17079     -2256.7502      6.0686389     -2250.6816     -27329.887    
     15600   133.92112      266.2667      -2256.5566      5.8510043     -2250.7056     -27859.021    
     15650   143.70857      285.72645     -2257.0083      6.2786173     -2250.7297     -26067.036    
     15700   140.33911      279.02717     -2256.8852      6.1314057     -2250.7538     -22411.305    
     15750   150.23074      298.69405     -2257.3454      6.5635702     -2250.7818     -23423.954    
     15800   136.48396      271.36223     -2256.7687      5.9629746     -2250.8057     -23834.473    
     15850   148.1433       294.54374     -2257.3035      6.4723703     -2250.8312     -23120.497    
     15900   150.98072      300.1852      -2257.4505      6.596337      -2250.8542     -27218.405    
     15950   151.57366      301.3641      -2257.4984      6.6222425     -2250.8761     -26426.04     
     16000   130.59133      259.6463      -2256.5872      5.705526      -2250.8817     -26971.332    
     16050   139.21127      276.78475     -2256.9974      6.0821303     -2250.9153     -21132.411    
     16100   139.43127      277.22217     -2257.0238      6.0917422     -2250.932      -23116.734    
     16150   135.8001       270.00255     -2256.8896      5.9330966     -2250.9565     -22135.113    
     16200   144.9014       288.09807     -2257.3058      6.3307317     -2250.975      -23595.945    
     16250   155.29958      308.77211     -2257.7751      6.7850276     -2250.9901     -25778.442    
     16300   151.57981      301.37633     -2257.6356      6.6225112     -2251.0131     -20529.771    
     16350   143.61389      285.53821     -2257.3015      6.2744808     -2251.0271     -23726.84     
     16400   148.49579      295.24457     -2257.5315      6.4877705     -2251.0438     -24626.963    
     16450   154.50843      307.19911     -2257.8144      6.7504623     -2251.0639     -28479.116    
     16500   162.9446       323.97221     -2258.2067      7.1190381     -2251.0877     -29277.138    
     16550   141.12166      280.58306     -2257.2685      6.1655953     -2251.1029     -25881.187    
     16600   142.08454      282.4975      -2257.3296      6.2076636     -2251.1219     -28217.941    
     16650   158.59919      315.33252     -2258.064       6.9291876     -2251.1348     -24179.889    
     16700   149.1602       296.56557     -2257.6573      6.5167985     -2251.1405     -24439.217    
     16750   141.81517      281.96192     -2257.3466      6.1958945     -2251.1507     -24025.164    
     16800   140.50021      279.34748     -2257.3094      6.1384442     -2251.171      -23592.16     
     16850   142.19031      282.7078      -2257.3978      6.2122847     -2251.1856     -24572.258    
     16900   125.49862      249.52078     -2256.6834      5.4830256     -2251.2004     -25018.645    
     16950   137.05496      272.49752     -2257.2156      5.9879216     -2251.2277     -19441.09     
     17000   140.60393      279.55369     -2257.3753      6.1429757     -2251.2323     -24849.759    
     17050   150.14579      298.52517     -2257.8092      6.5598591     -2251.2493     -24490.432    
     17100   145.67477      289.63571     -2257.6276      6.3645202     -2251.2631     -25143.605    
     17150   139.54478      277.44786     -2257.3684      6.0967015     -2251.2717     -26104.186    
     17200   154.54891      307.27959     -2258.0397      6.7522307     -2251.2875     -22664.997    
     17250   143.19465      284.70465     -2257.5588      6.256164      -2251.3026     -24101.628    
     17300   137.81241      274.0035      -2257.3395      6.0210144     -2251.3185     -25984.202    
     17350   149.44972      297.14121     -2257.8557      6.5294478     -2251.3262     -24228.436    
     17400   139.81914      277.99334     -2257.4487      6.1086881     -2251.34       -25606.068    
     17450   140.25673      278.86338     -2257.479       6.1278065     -2251.3512     -26438.898    
     17500   147.29453      292.85618     -2257.8046      6.4352876     -2251.3694     -29399.235    
     17550   152.80564      303.81356     -2258.0529      6.6760674     -2251.3768     -25019.247    
     17600   143.49299      285.29783     -2257.6586      6.2691985     -2251.3894     -24430.828    
     17650   136.03042      270.46049     -2257.3397      5.9431595     -2251.3966     -26738.969    
     17700   150.41313      299.05669     -2257.9847      6.571539      -2251.4132     -25787.615    
     17750   152.84504      303.89191     -2258.103       6.677789      -2251.4252     -25544.079    
     17800   143.65856      285.62702     -2257.6996      6.2764323     -2251.4231     -25314.41     
     17850   143.50612      285.32393     -2257.7056      6.2697721     -2251.4358     -22849.044    
     17900   133.39896      265.22853     -2257.2701      5.8281912     -2251.4419     -23576.229    
     17950   143.86647      286.04039     -2257.7407      6.2855158     -2251.4552     -24988.904    
     18000   142.81217      283.9442      -2257.7052      6.2394537     -2251.4657     -23377.643    
     18050   151.42164      301.06184     -2258.087       6.6156005     -2251.4714     -27842.69     
     18100   145.88108      290.04592     -2257.8453      6.3735341     -2251.4717     -25465.396    
     18150   133.8251       266.07578     -2257.331       5.8468089     -2251.4842     -26232.244    
     18200   149.58448      297.40915     -2258.0325      6.5353355     -2251.4972     -25287.387    
     18250   132.73098      263.90041     -2257.3013      5.7990069     -2251.5023     -26162.39     
     18300   151.17236      300.56622     -2258.1208      6.6047096     -2251.5161     -27108.013    
     18350   143.51896      285.34947     -2257.7831      6.2703333     -2251.5128     -28954.463    
     18400   153.15683      304.51181     -2258.2166      6.6914109     -2251.5252     -26907.734    
     18450   150.1034       298.44087     -2258.0941      6.5580067     -2251.5361     -24044.161    
     18500   145.6212       289.5292      -2257.9028      6.3621797     -2251.5406     -21176.901    
     18550   157.23661      312.62338     -2258.4187      6.8696564     -2251.5491     -27707.169    
     18600   148.45194      295.15739     -2258.0501      6.4858548     -2251.5643     -24944.683    
     18650   137.82877      274.03602     -2257.5834      6.0217291     -2251.5616     -29372.45     
     18700   141.98791      282.30538     -2257.7771      6.2034418     -2251.5736     -24558.266    
     18750   139.59933      277.55632     -2257.6729      6.099085      -2251.5738     -23798.254    
     18800   144.52161      287.34296     -2257.9007      6.3141388     -2251.5866     -25058.836    
     18850   147.30442      292.87584     -2258.0245      6.4357196     -2251.5888     -27421.321    
     18900   148.6741       295.59909     -2258.0786      6.4955607     -2251.583      -27030.885    
     18950   139.16443      276.69164     -2257.6787      6.0800843     -2251.5987     -25536.71     
     19000   139.4523       277.26399     -2257.695       6.0926612     -2251.6024     -25362.276    
     19050   156.5528       311.26381     -2258.4575      6.8397809     -2251.6177     -25634.299    
     19100   152.7941       303.79061     -2258.292       6.6755632     -2251.6164     -25650.934    
     19150   150.69088      299.60892     -2258.1974      6.5836737     -2251.6138     -26152.449    
     19200   148.24446      294.74487     -2258.0992      6.4767899     -2251.6224     -22190.486    
     19250   149.10614      296.45809     -2258.1387      6.5144366     -2251.6242     -22001.359    
     19300   139.28551      276.93236     -2257.7063      6.0853739     -2251.6209     -23998.049    
     19350   150.79761      299.82113     -2258.2216      6.5883369     -2251.6332     -24187.347    
     19400   141.7396       281.81167     -2257.8276      6.1925929     -2251.635      -26294.243    
     19450   144.07642      286.45782     -2257.9298      6.2946885     -2251.6351     -24158.164    
     19500   130.68057      259.82372     -2257.3472      5.7094248     -2251.6377     -25598.46     
     19550   136.11139      270.62147     -2257.5873      5.9466969     -2251.6406     -29489.5      
     19600   139.55963      277.47738     -2257.7383      6.0973503     -2251.641      -21708.036    
     19650   133.88648      266.19782     -2257.486       5.8494908     -2251.6365     -23051.018    
     19700   155.514        309.19842     -2258.4369      6.7943955     -2251.6425     -24382.115    
     19750   149.64049      297.5205      -2258.1795      6.5377824     -2251.6418     -25027.145    
     19800   133.1807       264.79456     -2257.4632      5.8186552     -2251.6446     -25897.053    
     19850   133.58959      265.60754     -2257.481       5.8365197     -2251.6445     -22153.504    
     19900   139.51059      277.37989     -2257.7365      6.0952079     -2251.6413     -28223.121    
     19950   139.31849      276.99794     -2257.721       6.086815      -2251.6342     -24526.936    
     20000   148.95193      296.15149     -2258.1357      6.5076994     -2251.628      -23155.062    
     20050   133.50828      265.44587     -2257.4491      5.8329673     -2251.6161     -24062.993    
     20100   146.49911      291.2747      -2258.0267      6.4005357     -2251.6261     -26190.651    
     20150   132.57483      263.58995     -2257.4097      5.7921848     -2251.6175     -23726.224    
     20200   143.00495      284.32749     -2257.8645      6.2478761     -2251.6166     -21709.657    
     20250   145.8633       290.01057     -2257.9776      6.3727574     -2251.6049     -26952.196    
     20300   149.05758      296.36154     -2258.1081      6.5123151     -2251.5958     -28372.437    
     20350   161.1656       320.43514     -2258.6305      7.0413138     -2251.5892     -28371.616    
     20400   163.75237      325.57824     -2258.7436      7.1543294     -2251.5893     -26277.11     
     20450   159.9668       318.05164     -2258.5717      6.9889382     -2251.5827     -24901.442    
     20500   151.42157      301.06171     -2258.201       6.6155976     -2251.5854     -22089.511    
     20550   173.30204      344.56522     -2259.1483      7.5715537     -2251.5768     -26815.715    
     20600   143.72415      285.75743     -2257.8493      6.279298      -2251.57       -21492.501    
     20650   173.05475      344.07355     -2259.1334      7.5607495     -2251.5726     -25821.45     
     20700   164.83647      327.7337      -2258.7592      7.2016939     -2251.5575     -26027.035    
     20750   161.06862      320.24232     -2258.594       7.0370767     -2251.5569     -26981.893    
     20800   148.19649      294.64949     -2258.028       6.4746941     -2251.5533     -28519.57     
     20850   150.84592      299.91717     -2258.1453      6.5904473     -2251.5549     -24959.689    
     20900   149.92173      298.07967     -2258.1005      6.5500697     -2251.5505     -27824.543    
     20950   150.24874      298.72985     -2258.1161      6.5643569     -2251.5518     -28574.97     
     21000   153.3157       304.82768     -2258.2457      6.6983519     -2251.5474     -26461.529    
     21050   150.21226      298.65733     -2258.1215      6.5627632     -2251.5587     -26141.38     
     21100   157.14002      312.43133     -2258.4252      6.8654363     -2251.5598     -28105.072    
     21150   157.58433      313.31472     -2258.4493      6.8848481     -2251.5644     -26140.338    
     21200   157.40799      312.96413     -2258.4385      6.8771441     -2251.5613     -24452.112    
     21250   153.98302      306.15447     -2258.286       6.7275072     -2251.5585     -29083.841    
     21300   151.92469      302.06203     -2258.196       6.6375788     -2251.5584     -24486.577    
     21350   150.24748      298.72733     -2258.1298      6.5643015     -2251.5655     -33989.48     
     21400   163.93335      325.93808     -2258.7264      7.1622365     -2251.5642     -26091.442    
     21450   165.82672      329.70254     -2258.8058      7.2449576     -2251.5609     -29755.084    
     21500   162.89101      323.86565     -2258.6876      7.1166965     -2251.5709     -25995.525    
     21550   174.71521      347.37495     -2259.2028      7.6332951     -2251.5695     -24922.828    
     21600   171.46903      340.92078     -2259.0615      7.4914698     -2251.57       -28648.096    
     21650   174.94751      347.83682     -2259.2285      7.6434444     -2251.5851     -28108.6      
     21700   167.25987      332.55199     -2258.8848      7.307572      -2251.5773     -28191.768    
     21750   175.03398      348.00873     -2259.2431      7.647222      -2251.5959     -27852.825    
     21800   162.43966      322.96827     -2258.6991      7.0969773     -2251.6021     -28771.099    
     21850   173.28204      344.52547     -2259.19        7.57068       -2251.6193     -27473.822    
     21900   168.65332      335.32249     -2258.9907      7.3684517     -2251.6222     -25988.254    
     21950   159.17086      316.46912     -2258.5912      6.9541635     -2251.637      -26769.804    
     22000   165.74557      329.5412      -2258.885       7.2414123     -2251.6435     -28241.957    
     22050   174.79697      347.53751     -2259.2959      7.6368673     -2251.659      -27478.113    
     22100   173.134        344.23113     -2259.2334      7.5642122     -2251.6692     -28351.702    
     22150   162.00648      322.107       -2258.7647      7.0780516     -2251.6867     -27040.372    
     22200   164.81064      327.68233     -2258.9028      7.2005652     -2251.7022     -24282.805    
     22250   171.99417      341.96488     -2259.2359      7.514413      -2251.7215     -27870.912    
     22300   168.12446      334.27099     -2259.0855      7.3453459     -2251.7401     -27733.963    
     22350   168.78868      335.59161     -2259.1382      7.3743653     -2251.7638     -27562.808    
     22400   160.87512      319.85759     -2258.8133      7.0286226     -2251.7847     -27404.477    
     22450   164.06122      326.19231     -2258.9718      7.167823      -2251.8039     -27455.4      
     22500   171.80963      341.59797     -2259.3367      7.5063505     -2251.8304     -29251.857    
     22550   180.28038      358.43981     -2259.7333      7.8764368     -2251.8568     -28305.71     
     22600   158.51524      315.1656      -2258.812       6.9255198     -2251.8865     -29454.75     
     22650   149.87545      297.98767     -2258.457       6.5480479     -2251.9089     -31538.785    
     22700   153.15035      304.49894     -2258.6312      6.691128      -2251.9401     -29084.872    
     22750   162.33446      322.75911     -2259.0544      7.0923812     -2251.962      -29719.757    
     22800   168.25748      334.53547     -2259.3433      7.3511575     -2251.9921     -29994.54     
     22850   169.2173       336.4438      -2259.4209      7.3930917     -2252.0278     -24710.497    
     22900   170.64325      339.27893     -2259.5102      7.4553914     -2252.0548     -26518.295    
     22950   172.95039      343.86607     -2259.6393      7.5561903     -2252.0832     -29841.342    
     23000   160.40681      318.92648     -2259.1194      7.0081622     -2252.1112     -30951.626    
     23050   158.17232      314.48379     -2259.068       6.9105375     -2252.1574     -28747.07     
     23100   152.79453      303.79148     -2258.8522      6.6755822     -2252.1766     -32256.46     
     23150   148.98226      296.21179     -2258.7236      6.5090245     -2252.2146     -28922.555    
     23200   160.70628      319.5219      -2259.2754      7.021246      -2252.2541     -30650.78     
     23250   156.33067      310.82215     -2259.1113      6.8300758     -2252.2813     -26076.243    
     23300   171.46792      340.91858     -2259.8131      7.4914215     -2252.3216     -27224.922    
     23350   165.43555      328.92481     -2259.5917      7.2278676     -2252.3638     -27497.577    
     23400   157.28135      312.71233     -2259.2609      6.8716109     -2252.3893     -25390.039    
     23450   165.78802      329.62559     -2259.6696      7.2432668     -2252.4263     -28849.591    
     23500   159.67303      317.46755     -2259.4338      6.9761032     -2252.4577     -31462.451    
     23550   170.05555      338.11044     -2259.9261      7.4297147     -2252.4964     -26251.34     
     23600   170.94223      339.87338     -2259.9982      7.468454      -2252.5297     -27875.581    
     23650   173.17746      344.31755     -2260.1404      7.5661111     -2252.5743     -23546.206    
     23700   166.29951      330.64256     -2259.8729      7.2656139     -2252.6073     -26539.1      
     23750   163.60921      325.29361     -2259.7956      7.1480749     -2252.6475     -30988.581    
     23800   147.16098      292.59064     -2259.1128      6.4294526     -2252.6834     -31374.016    
     23850   153.40966      305.01449     -2259.4226      6.702457      -2252.7201     -31987.577    
     23900   148.92278      296.09352     -2259.2681      6.5064255     -2252.7617     -32263.638    
     23950   152.93816      304.07704     -2259.4798      6.6818572     -2252.7979     -30837.276    
     24000   165.52544      329.10353     -2260.072       7.2317949     -2252.8402     -28704.624    
     24050   164.57039      327.20465     -2260.0613      7.1900685     -2252.8712     -30602.8      
     24100   164.02318      326.11667     -2260.0807      7.1661609     -2252.9145     -29828.999    
     24150   158.56162      315.25781     -2259.8761      6.9275459     -2252.9486     -24951.947    
     24200   159.62818      317.37839     -2259.9516      6.9741441     -2252.9775     -27156.798    
     24250   151.26301      300.74645     -2259.6207      6.6086701     -2253.012      -29400.613    
     24300   163.25494      324.58924     -2260.1884      7.1325969     -2253.0558     -29593.555    
     24350   155.85858      309.88353     -2259.8962      6.8094504     -2253.0868     -26875.36     
     24400   156.6836       311.52386     -2259.968       6.8454953     -2253.1225     -29054.272    
     24450   161.55028      321.19996     -2260.217       7.0581202     -2253.1589     -31083.124    
     24500   167.43832      332.90677     -2260.5125      7.3153683     -2253.1972     -24761.311    
     24550   151.30932      300.83853     -2259.8305      6.6106933     -2253.2198     -27273.408    
     24600   153.91891      306.02701     -2259.9842      6.7247062     -2253.2595     -29460.652    
     24650   165.1786       328.41393     -2260.5208      7.2166415     -2253.3042     -29369.167    
     24700   147.1928       292.65392     -2259.7715      6.4308431     -2253.3407     -30832.572    
     24750   146.46327      291.20345     -2259.7722      6.39897       -2253.3732     -30843.219    
     24800   155.42803      309.02749     -2260.2059      6.7906395     -2253.4153     -23050.497    
     24850   169.77642      337.55546     -2260.8675      7.4175195     -2253.4499     -27627.242    
     24900   165.89392      329.83614     -2260.7404      7.2478935     -2253.4925     -32991.284    
     24950   170.53386      339.06144     -2260.9884      7.4506123     -2253.5378     -29404.153    
     25000   170.28219      338.56105     -2261.0208      7.4396166     -2253.5812     -32013.687    
     25050   164.66958      327.40187     -2260.8173      7.1944022     -2253.6229     -31408.647    
     25100   167.85906      333.7433      -2260.9967      7.3337503     -2253.6629     -33223.533    
     25150   170.56928      339.13185     -2261.1643      7.4521595     -2253.7121     -28615.805    
     25200   156.07184      310.30753     -2260.5704      6.8187675     -2253.7516     -28229.269    
     25250   175.92649      349.78325     -2261.4835      7.6862158     -2253.7973     -29851.819    
     25300   183.04888      363.94424     -2261.8437      7.9973924     -2253.8463     -33009.3      
     25350   160.02107      318.15954     -2260.8744      6.9913092     -2253.8831     -25068.697    
     25400   172.51199      342.99443     -2261.4673      7.5370367     -2253.9303     -31713.42     
     25450   149.13213      296.50975     -2260.495       6.515572      -2253.9794     -32895.515    
     25500   160.61661      319.34361     -2261.0369      7.0173282     -2254.0196     -28478.139    
     25550   157.59345      313.33286     -2260.9495      6.8852467     -2254.0643     -28020.314    
     25600   167.27573      332.5835      -2261.4168      7.3082646     -2254.1086     -33544.422    
     25650   169.85533      337.71236     -2261.5814      7.4209674     -2254.1604     -27768.991    
     25700   174.73741      347.41909     -2261.8385      7.634265      -2254.2042     -28872.36     
     25750   156.88583      311.92594     -2261.0986      6.8543307     -2254.2443     -28302.413    
     25800   170.46948      338.93343     -2261.74        7.4477994     -2254.2922     -27360.238    
     25850   173.99511      345.94322     -2261.9364      7.6018341     -2254.3346     -26180.582    
     25900   158.67722      315.48765     -2261.311       6.9325964     -2254.3784     -29873.486    
     25950   159.06389      316.25644     -2261.372       6.94949       -2254.4225     -29228.741    
     26000   152.06297      302.33697     -2261.1064      6.6436205     -2254.4628     -30214.681    
     26050   165.37077      328.79601     -2261.7349      7.2250374     -2254.5098     -27689.866    
     26100   157.87658      313.8958      -2261.4455      6.8976168     -2254.5478     -28419.198    
     26150   165.96381      329.9751      -2261.8502      7.250947      -2254.5993     -27416.572    
     26200   168.60646      335.22932     -2262.0068      7.3664044     -2254.6403     -27802.199    
     26250   162.72559      323.53676     -2261.7904      7.1094695     -2254.6809     -32356.099    
     26300   161.6661       321.43025     -2261.7841      7.0631805     -2254.7209     -31058.777    
     26350   161.05284      320.21095     -2261.8007      7.0363873     -2254.7643     -32382.04     
     26400   159.06189      316.25246     -2261.7531      6.9494025     -2254.8037     -29705.961    
     26450   142.38261      283.09012     -2261.0584      6.220686      -2254.8377     -28363.15     
     26500   156.55359      311.26538     -2261.7156      6.8398153     -2254.8758     -32843.467    
     26550   155.35263      308.87759     -2261.6948      6.7873455     -2254.9074     -32322.694    
     26600   152.40208      303.01119     -2261.6016      6.6584359     -2254.9432     -31641.962    
     26650   158.84902      315.82922     -2261.9226      6.9401022     -2254.9825     -29105.321    
     26700   148.34142      294.93766     -2261.508       6.4810263     -2255.0269     -28499.526    
     26750   161.98645      322.06717     -2262.1361      7.0771764     -2255.0589     -30354.17     
     26800   156.97927      312.11173     -2261.9533      6.8584133     -2255.0949     -28455.468    
     26850   146.95938      292.18983     -2261.5561      6.420645      -2255.1355     -32229.644    
     26900   149.57165      297.38363     -2261.6985      6.5347748     -2255.1637     -32690.483    
     26950   146.68828      291.65082     -2261.6135      6.4088007     -2255.2047     -29905.491    
     27000   140.24793      278.84588     -2261.3576      6.1274221     -2255.2302     -28344.47     
     27050   139.06094      276.48586     -2261.3401      6.0755625     -2255.2646     -32707.912    
     27100   155.01033      308.19702     -2262.0729      6.7723905     -2255.3005     -29760.132    
     27150   132.60615      263.65222     -2261.1134      5.7935532     -2255.3199     -31540.161    
     27200   151.64909      301.51408     -2261.9858      6.6255381     -2255.3603     -27848.205    
     27250   146.31934      290.91727     -2261.7788      6.3926815     -2255.3861     -29909.413    
     27300   144.25589      286.81465     -2261.7226      6.3025295     -2255.4201     -28526.238    
     27350   151.69708      301.60948     -2262.0745      6.6276346     -2255.4468     -30799.713    
     27400   149.44034      297.12256     -2262.0067      6.529038      -2255.4777     -31827.741    
     27450   155.35485      308.88199     -2262.297       6.7874422     -2255.5096     -31290.591    
     27500   137.12573      272.63821     -2261.5301      5.9910133     -2255.5391     -30219.114    
     27550   153.79303      305.77673     -2262.2838      6.7192065     -2255.5646     -30085.071    
     27600   141.85896      282.04899     -2261.7871      6.1978078     -2255.5893     -32297.369    
     27650   138.32726      275.02714     -2261.6618      6.0435082     -2255.6183     -29900.541    
     27700   148.21744      294.69115     -2262.1195      6.4756096     -2255.6439     -29464.05     
     27750   151.63052      301.47715     -2262.2933      6.6247266     -2255.6686     -24984.243    
     27800   154.97495      308.12666     -2262.4667      6.7708444     -2255.6959     -28764.588    
     27850   152.27379      302.75612     -2262.375       6.6528309     -2255.7222     -27920.332    
     27900   150.76464      299.75558     -2262.3385      6.5868964     -2255.7516     -28247.915    
     27950   151.90615      302.02517     -2262.407       6.6367689     -2255.7702     -27327.495    
     28000   151.02865      300.28049     -2262.3956      6.5984309     -2255.7972     -32425.966    
     28050   160.19155      318.4985      -2262.83        6.9987576     -2255.8312     -33095.189    
     28100   145.94829      290.17954     -2262.2346      6.3764705     -2255.8581     -29619.778    
     28150   128.93829      256.35965     -2261.5083      5.6333045     -2255.875      -29247.175    
     28200   153.49426      305.1827      -2262.6097      6.7061531     -2255.9036     -31092.954    
     28250   145.95269      290.18829     -2262.3094      6.3766628     -2255.9327     -31647.873    
     28300   151.20593      300.63296     -2262.5566      6.6061762     -2255.9504     -31373.566    
     28350   144.76518      287.82723     -2262.2983      6.3247802     -2255.9735     -29580.442    
     28400   159.57441      317.27147     -2262.9755      6.9717946     -2256.0037     -32046.967    
     28450   145.16981      288.63175     -2262.3629      6.3424589     -2256.0205     -29345.201    
     28500   155.36482      308.90181     -2262.8461      6.7878778     -2256.0582     -30789.82     
     28550   161.3531       320.80792     -2263.1283      7.0495053     -2256.0788     -30526.312    
     28600   155.12201      308.41906     -2262.88        6.7772696     -2256.1027     -32828.009    
     28650   144.19974      286.70302     -2262.4268      6.3000765     -2256.1267     -30802.886    
     28700   142.85484      284.02903     -2262.3905      6.2413178     -2256.1491     -32792.264    
     28750   145.32581      288.9419      -2262.5236      6.3492743     -2256.1743     -32581.594    
     28800   166.01964      330.08611     -2263.4533      7.2533864     -2256.1999     -31162.799    
     28850   142.61231      283.54684     -2262.4498      6.2307219     -2256.2191     -33443.297    
     28900   147.43913      293.14369     -2262.6847      6.4416052     -2256.2431     -28548.813    
     28950   141.18813      280.71521     -2262.4353      6.1684992     -2256.2668     -36551.181    
     29000   154.70193      307.58384     -2263.0574      6.7589164     -2256.2985     -32224.315    
     29050   160.6117       319.33385     -2263.3333      7.0171137     -2256.3162     -34364.37     
     29100   157.08961      312.3311      -2263.2039      6.8632337     -2256.3407     -33928.204    
     29150   147.18         292.62848     -2262.7819      6.4302839     -2256.3516     -30584.725    
     29200   148.82071      295.8906      -2262.8853      6.5019665     -2256.3833     -28657.208    
     29250   149.49821      297.23762     -2262.9455      6.5315662     -2256.4139     -32152.611    
     29300   138.42792      275.22728     -2262.4809      6.047906      -2256.433      -34709.574    
     29350   146.18897      290.65808     -2262.8442      6.3869859     -2256.4572     -33026.908    
     29400   131.3795       261.21336     -2262.2116      5.7399611     -2256.4717     -31981.792    
     29450   150.61169      299.45148     -2263.0717      6.5802142     -2256.4915     -28926.254    
     29500   139.50929      277.3773      -2262.6075      6.095151      -2256.5124     -28563.235    
     29550   139.76877      277.89321     -2262.6407      6.1064878     -2256.5342     -31665.618    
     29600   152.03347      302.27832     -2263.1972      6.6423317     -2256.5548     -32727.197    
     29650   146.11017      290.50141     -2262.957       6.3835432     -2256.5735     -31377.616    
     29700   143.16875      284.65315     -2262.8491      6.2550323     -2256.594      -28854.39     
     29750   141.51047      281.35611     -2262.7942      6.1825823     -2256.6117     -31184.347    
     29800   147.88589      294.03194     -2263.0937      6.4611239     -2256.6326     -32280.23     
     29850   149.29128      296.82619     -2263.1761      6.5225254     -2256.6536     -30657.286    
     29900   150.14077      298.51519     -2263.2283      6.5596397     -2256.6687     -30698.44     
     29950   144.07099      286.44702     -2262.9849      6.2944511     -2256.6904     -27971.913    
     30000   141.53419      281.40328     -2262.892       6.1836189     -2256.7084     -30679.037    
     30050   142.17859      282.68449     -2262.9391      6.2117725     -2256.7273     -31093.83     
     30100   137.33742      273.05912     -2262.7448      6.0002623     -2256.7445     -30614.064    
     30150   150.11609      298.46611     -2263.3206      6.5585614     -2256.7621     -33913.953    
     30200   143.67268      285.6551      -2263.0559      6.2770493     -2256.7789     -30060.803    
     30250   139.89088      278.13598     -2262.9085      6.1118225     -2256.7966     -32454.609    
     30300   136.34367      271.0833      -2262.7716      5.9568454     -2256.8147     -32278.194    
     30350   141.63293      281.59959     -2263.0156      6.1879327     -2256.8277     -33784.38     
     30400   128.59342      255.67398     -2262.4581      5.6182375     -2256.8399     -35713.083    
     30450   140.67648      279.69795     -2263.0073      6.1461456     -2256.8612     -33400.142    
     30500   141.03764      280.41601     -2263.0356      6.1619244     -2256.8737     -32785.323    
     30550   154.23072      306.64697     -2263.6299      6.7383293     -2256.8916     -31355.321    
     30600   146.68951      291.65327     -2263.3075      6.4088545     -2256.8986     -34237.385    
     30650   133.27711      264.98625     -2262.727       5.8228675     -2256.9041     -33584.224    
     30700   143.77365      285.85584     -2263.2029      6.2814605     -2256.9214     -32899.804    
     30750   134.74386      267.90251     -2262.818       5.8869499     -2256.931      -36418.202    
     30800   138.02702      274.4302      -2262.9721      6.0303909     -2256.9417     -33893.208    
     30850   137.73213      273.84389     -2262.9748      6.0175071     -2256.9573     -29925.757    
     30900   142.99289      284.30351     -2263.2157      6.2473492     -2256.9684     -27877.537    
     30950   145.05911      288.41165     -2263.3097      6.3376223     -2256.9721     -33661.922    
     31000   138.87156      276.10935     -2263.0464      6.0672888     -2256.9791     -31994.704    
     31050   143.92857      286.16387     -2263.2796      6.2882291     -2256.9913     -34347.325    
     31100   159.61049      317.34321     -2263.9754      6.973371      -2257.002      -33819.399    
     31150   154.88258      307.943       -2263.7749      6.7668087     -2257.0081     -32163.219    
     31200   143.74154      285.792       -2263.2966      6.2800576     -2257.0165     -32047.308    
     31250   147.0307       292.33162     -2263.4509      6.4237606     -2257.0272     -29213.878    
     31300   146.7402       291.75405     -2263.4503      6.4110691     -2257.0393     -31607.429    
     31350   155.57971      309.32906     -2263.8351      6.7972664     -2257.0378     -35512.171    
     31400   133.86904      266.16314     -2262.8871      5.8487287     -2257.0384     -35018.837    
     31450   138.07831      274.53217     -2263.0794      6.0326317     -2257.0467     -33595.418    
     31500   135.98808      270.3763      -2263           5.9413095     -2257.0587     -31640.143    
     31550   143.82221      285.9524      -2263.3529      6.2835822     -2257.0693     -29464.259    
     31600   131.87759      262.20369     -2262.8288      5.7617227     -2257.0671     -33010.604    
     31650   139.14262      276.64828     -2263.1486      6.0791313     -2257.0694     -35811.18     
     31700   159.93165      317.98175     -2264.0661      6.9874025     -2257.0787     -31805.976    
     31750   143.13549      284.58703     -2263.3384      6.2535792     -2257.0848     -30989.765    
     31800   139.46498      277.2892      -2263.1764      6.0932152     -2257.0832     -30986.85     
     31850   140.07756      278.50715     -2263.2148      6.1199786     -2257.0949     -33276.763    
     31900   147.43133      293.12818     -2263.5377      6.4412645     -2257.0965     -30173.653    
     31950   137.55552      273.49273     -2263.1061      6.0097908     -2257.0963     -30436.265    
     32000   139.02979      276.42393     -2263.1766      6.0742016     -2257.1024     -34607.755    
     32050   124.55009      247.63489     -2262.5452      5.4415847     -2257.1037     -35922.639    
     32100   149.2342       296.71269     -2263.6223      6.5200314     -2257.1023     -36785.784    
     32150   130.8254       260.11168     -2262.8183      5.7157524     -2257.1025     -36538.067    
     32200   145.24869      288.78857     -2263.4588      6.345905      -2257.1129     -33342.961    
     32250   139.714        277.78431     -2263.2104      6.1040947     -2257.1063     -30812.552    
     32300   145.39642      289.0823      -2263.4558      6.3523594     -2257.1034     -37838.701    
     32350   142.97601      284.26995     -2263.3523      6.2466118     -2257.1056     -38319.295    
     32400   133.66221      265.75192     -2262.9428      5.8396923     -2257.1031     -32637.07     
     32450   140.68482      279.71452     -2263.2458      6.1465097     -2257.0993     -33453.494    
     32500   131.68869      261.8281      -2262.8457      5.7534694     -2257.0922     -30496.353    
     32550   145.6767       289.63956     -2263.4565      6.3646047     -2257.0919     -31639.836    
     32600   144.14641      286.59698     -2263.3907      6.2977465     -2257.0929     -32497.337    
     32650   138.85946      276.08529     -2263.1471      6.0667601     -2257.0803     -30390.961    
     32700   141.37037      281.07756     -2263.2582      6.1764615     -2257.0818     -31938.456    
     32750   146.00249      290.2873      -2263.4478      6.3788383     -2257.0689     -33090.93     
     32800   145.58939      289.46597     -2263.4301      6.3607903     -2257.0693     -31136.773    
     32850   137.92457      274.2265      -2263.0879      6.0259147     -2257.062      -29632.529    
     32900   138.74822      275.86411     -2263.1237      6.0619        -2257.0618     -33346.187    
     32950   148.94031      296.12838     -2263.5638      6.5071916     -2257.0566     -32726.255    
     33000   151.28289      300.78598     -2263.666       6.6095387     -2257.0565     -36149.027    
     33050   134.76827      267.95102     -2262.9252      5.888016      -2257.0372     -33629.287    
     33100   132.45823      263.35813     -2262.8201      5.7870906     -2257.033      -33112.57     
     33150   138.49429      275.35924     -2263.0844      6.0508057     -2257.0336     -31727.409    
     33200   145.34516      288.98038     -2263.3763      6.3501199     -2257.0262     -31288.482    
     33250   151.01641      300.25615     -2263.6157      6.5978962     -2257.0178     -34892.374    
     33300   146.13003      290.54088     -2263.3997      6.3844105     -2257.0153     -30104.054    
     33350   149.45225      297.14623     -2263.5335      6.5295581     -2257.004      -32287.259    
     33400   143.76146      285.83162     -2263.2697      6.2809282     -2256.9888     -33361.165    
     33450   147.49901      293.26274     -2263.4347      6.4442212     -2256.9905     -32860.953    
     33500   154.5614       307.30444     -2263.7372      6.7527767     -2256.9844     -33425.783    
     33550   156.61694      311.39134     -2263.8228      6.8425832     -2256.9802     -32234.406    
     33600   166.71494      331.46852     -2264.2556      7.2837637     -2256.9719     -33455.339    
     33650   152.26387      302.7364      -2263.6172      6.6523976     -2256.9648     -36420.184    
     33700   139.92524      278.2043      -2263.0684      6.1133239     -2256.955      -37664.747    
     33750   140.96206      280.26574     -2263.1096      6.1586223     -2256.951      -29992.744    
     33800   143.99484      286.29563     -2263.2291      6.2911244     -2256.938      -28396.757    
     33850   140.66095      279.66706     -2263.073       6.1454669     -2256.9275     -31197.38     
     33900   149.21836      296.68121     -2263.4328      6.5193396     -2256.9134     -30861.452    
     33950   141.44495      281.22584     -2263.0804      6.1797198     -2256.9007     -28019.007    
     34000   140.05545      278.46318     -2263.0132      6.1190125     -2256.8942     -27036.422    
     34050   156.42463      311.00897     -2263.7178      6.8341809     -2256.8836     -27232.699    
     34100   157.24134      312.63278     -2263.7419      6.869863      -2256.8721     -27407.459    
     34150   159.63084      317.38366     -2263.837       6.9742599     -2256.8628     -31834.473    
     34200   154.67416      307.52863     -2263.6105      6.7577032     -2256.8528     -31558.196    
     34250   159.88924      317.89744     -2263.8284      6.9855497     -2256.8428     -31917.264    
     34300   156.90247      311.95903     -2263.6871      6.8550577     -2256.832      -28365.169    
     34350   149.82292      297.88321     -2263.3659      6.5457525     -2256.8201     -29203.184    
     34400   157.70716      313.55894     -2263.7085      6.8902146     -2256.8182     -31680.108    
     34450   141.22663      280.79177     -2262.9695      6.1701813     -2256.7994     -32037.255    
     34500   147.35061      292.96768     -2263.2367      6.4377377     -2256.799      -34871.14     
     34550   149.05947      296.36529     -2263.2955      6.5123975     -2256.7831     -33213.528    
     34600   146.80026      291.87346     -2263.1967      6.413693      -2256.783      -32822.441    
     34650   147.27231      292.812       -2263.2012      6.4343166     -2256.7668     -34066.751    
[...]
    191150   152.75905      303.72094     -2268.9169      6.6740322     -2262.2429     -26526.976    
    191200   146.36416      291.0064      -2268.6368      6.39464       -2262.2422     -29530.408    
    191250   141.29176      280.92126     -2268.4188      6.1730268     -2262.2457     -25843.025    
    191300   154.06487      306.31721     -2268.9847      6.7310832     -2262.2536     -25450.029    
    191350   139.22506      276.81217     -2268.329       6.0827329     -2262.2463     -26364.556    
    191400   139.80118      277.95765     -2268.3525      6.1079038     -2262.2446     -28014.619    
    191450   151.23658      300.6939      -2268.8594      6.6075154     -2262.2519     -30065.911    
    191500   155.19617      308.56651     -2269.0346      6.7805098     -2262.254      -30437.137    
    191550   140.44571      279.23912     -2268.387       6.1360632     -2262.251      -27037.244    
    191600   147.76968      293.80089     -2268.697       6.4560469     -2262.241      -30522.756    
    191650   144.34294      286.98773     -2268.5421      6.3063329     -2262.2357     -32827.093    
    191700   143.36554      285.04443     -2268.4972      6.2636303     -2262.2335     -32313.698    
    191750   137.97619      274.32914     -2268.2583      6.0281701     -2262.2302     -25518.936    
    191800   140.56837      279.48299     -2268.3765      6.1414219     -2262.2351     -27059.251    
    191850   144.45533      287.21119     -2268.5379      6.3112431     -2262.2266     -27583.101    
    191900   148.00118      294.26117     -2268.6878      6.466161      -2262.2216     -30084.358    
    191950   138.71889      275.80579     -2268.2595      6.0606183     -2262.1989     -27330.416    
    192000   138.18531      274.74491     -2268.2241      6.0373063     -2262.1868     -28051.205    
    192050   140.83022      280.00362     -2268.3392      6.1528624     -2262.1863     -29661.89     
    192100   147.45118      293.16764     -2268.6295      6.4421316     -2262.1874     -26251.064    
    192150   148.09707      294.45182     -2268.6462      6.4703505     -2262.1758     -26332.817    
    192200   132.5871       263.61435     -2267.9478      5.7927209     -2262.155      -28497.242    
    192250   145.70201      289.68988     -2268.5084      6.3657104     -2262.1427     -32250.077    
    192300   135.05901      268.52909     -2268.0398      5.9007186     -2262.1391     -29666.294    
    192350   130.50872      259.48204     -2267.8316      5.7019166     -2262.1297     -26922.791    
    192400   149.49937      297.23993     -2268.6518      6.531617      -2262.1202     -30262.8      
    192450   141.25961      280.85735     -2268.2718      6.1716226     -2262.1002     -29178.803    
    192500   158.09276      314.32561     -2269.0044      6.9070616     -2262.0974     -28710.079    
    192550   154.74107      307.66165     -2268.8434      6.7606263     -2262.0828     -27404.659    
    192600   152.91211      304.02526     -2268.7332      6.6807194     -2262.0525     -26063.182    
    192650   154.31354      306.81163     -2268.7804      6.7419476     -2262.0385     -27186.777    
    192700   140.78525      279.9142      -2268.167       6.1508976     -2262.0161     -28074.358    
    192750   150.26953      298.77119     -2268.566       6.5652653     -2262.0007     -29536.964    
    192800   141.06889      280.47814     -2268.1276      6.1632897     -2261.9643     -28477.429    
    192850   152.71412      303.6316      -2268.6303      6.6720689     -2261.9582     -29727.182    
    192900   141.77345      281.87899     -2268.1086      6.1940722     -2261.9146     -25744.782    
    192950   149.09633      296.43859     -2268.4006      6.5140082     -2261.8866     -28667.713    
    193000   161.13284      320.37        -2268.896       7.0398823     -2261.8561     -30618.856    
    193050   150.72387      299.67452     -2268.414       6.5851153     -2261.8289     -28538.114    
    193100   152.77458      303.75181     -2268.475       6.6747106     -2261.8003     -27429.393    
    193150   146.45958      291.19611     -2268.1584      6.3988087     -2261.7596     -29792.711    
    193200   159.98948      318.09673     -2268.7183      6.9899291     -2261.7283     -30692.256    
    193250   144.17388      286.65161     -2267.9823      6.2989468     -2261.6833     -25239.478    
    193300   156.81051      311.77619     -2268.4946      6.8510401     -2261.6436     -29540.426    
    193350   160.50714      319.12596     -2268.6136      7.0125455     -2261.6011     -33027.833    
    193400   159.09441      316.31712     -2268.5062      6.9508235     -2261.5554     -30860.214    
    193450   151.48544      301.1887      -2268.1149      6.6183881     -2261.4965     -34036.793    
    193500   144.65609      287.61035     -2267.7689      6.3200145     -2261.4489     -29528.636    
    193550   151.85127      301.91605     -2268.0377      6.6343712     -2261.4033     -28263.955    
    193600   151.5836       301.38386     -2267.9639      6.6226766     -2261.3412     -24496.652    
    193650   154.0598       306.30713     -2268.0229      6.7308617     -2261.2921     -28557.245    
    193700   155.8962       309.95832     -2268.0495      6.8110938     -2261.2384     -28669.928    
    193750   148.09471      294.44712     -2267.6546      6.4702472     -2261.1844     -25442.989    
    193800   154.71485      307.60952     -2267.9049      6.7594806     -2261.1455     -25972.462    
    193850   156.78407      311.72361     -2267.9565      6.8498847     -2261.1066     -29668.5      
    193900   154.25622      306.69766     -2267.8039      6.7394433     -2261.0644     -25626.248    
    193950   156.64352      311.44418     -2267.8607      6.8437443     -2261.0169     -23361.205    
    194000   156.73908      311.63416     -2267.833       6.8479191     -2260.9851     -26942.396    
    194050   157.7202       313.58487     -2267.8314      6.8907844     -2260.9406     -27907.488    
    194100   162.50788      323.1039      -2268.0221      7.0999576     -2260.9222     -28900.201    
    194150   158.30838      314.75431     -2267.7946      6.9164818     -2260.8782     -27773.251    
    194200   158.12224      314.38422     -2267.7584      6.9083494     -2260.8501     -31090.464    
    194250   153.57763      305.34846     -2267.5254      6.7097957     -2260.8156     -30385.823    
    194300   159.04845      316.22574     -2267.7355      6.9488155     -2260.7867     -25659.276    
    194350   160.15049      318.41686     -2267.7619      6.9969636     -2260.765      -29339.897    
    194400   160.43191      318.97639     -2267.7517      7.0092589     -2260.7424     -29515.886    
    194450   165.33733      328.72952     -2267.9488      7.2235764     -2260.7252     -30080.533    
    194500   164.36118      326.78869     -2267.8862      7.1809281     -2260.7053     -25550.816    
    194550   160.53978      319.19086     -2267.7         7.0139718     -2260.686      -30813.938    
    194600   148.76686      295.78352     -2267.1688      6.4996135     -2260.6691     -29402.99     
    194650   159.40479      316.93423     -2267.6091      6.9643839     -2260.6447     -28357.437    
    194700   156.75212      311.66009     -2267.4778      6.8484889     -2260.6294     -29892.634    
    194750   170.81142      339.61329     -2268.0796      7.4627387     -2260.6168     -25422.092    
    194800   157.22352      312.59734     -2267.459       6.8690843     -2260.5899     -27667.133    
    194850   167.86078      333.74672     -2267.902       7.3338255     -2260.5682     -29528.579    
    194900   165.96109      329.9697      -2267.8072      7.2508284     -2260.5564     -28083.903    
    194950   170.20334      338.40428     -2267.9922      7.4361717     -2260.5561     -26304.35     
    195000   150.826        299.87757     -2267.1304      6.5895771     -2260.5408     -25037.156    
    195050   148.16547      294.58781     -2267.003       6.4733387     -2260.5297     -29906.982    
    195100   176.55086      351.02465     -2268.245       7.7134944     -2260.5315     -30973.326    
    195150   169.46933      336.9449      -2267.9361      7.404103      -2260.532      -24584.168    
    195200   154.09579      306.37868     -2267.2552      6.732434      -2260.5228     -27855.793    
    195250   162.47971      323.0479      -2267.6167      7.098727      -2260.5179     -29468.897    
    195300   161.58397      321.26695     -2267.5814      7.059592      -2260.5218     -25031.891    
    195350   171.24658      340.4785      -2268.0071      7.4817511     -2260.5253     -26646.799    
    195400   152.63149      303.46732     -2267.1816      6.668459      -2260.5132     -30586.93     
    195450   166.05773      330.16184     -2267.7722      7.2550505     -2260.5172     -29642.821    
    195500   161.93903      321.9729      -2267.584       7.0751049     -2260.5089     -29651.017    
    195550   166.59407      331.2282      -2267.7913      7.278483      -2260.5129     -28343.197    
    195600   164.91216      327.88417     -2267.7191      7.2050004     -2260.5141     -29945.079    
    195650   156.27729      310.71602     -2267.3363      6.8277437     -2260.5086     -28318.357    
    195700   158.57354      315.28151     -2267.4296      6.9280668     -2260.5015     -27983.218    
    195750   161.33877      320.77943     -2267.5498      7.0488792     -2260.5009     -31207.042    
    195800   154.95486      308.08672     -2267.2707      6.7699668     -2260.5007     -31297.391    
    195850   158.24468      314.62766     -2267.4171      6.9136989     -2260.5034     -27395.436    
    195900   167.27796      332.58794     -2267.8192      7.3083621     -2260.5109     -25164.417    
    195950   161.67744      321.45279     -2267.5828      7.0636758     -2260.5191     -27270.12     
    196000   170.4633       338.92115     -2267.9635      7.4475295     -2260.516      -27994.485    
    196050   156.381        310.92223     -2267.3527      6.8322749     -2260.5204     -27110.195    
    196100   167.54511      333.1191      -2267.8541      7.3200339     -2260.534      -28108.702    
    196150   148.63189      295.51518     -2267.0234      6.4937169     -2260.5297     -26811.518    
    196200   168.11008      334.2424      -2267.8908      7.3447176     -2260.546      -26433.161    
    196250   142.15131      282.63025     -2266.7535      6.2105805     -2260.5429     -31168.141    
    196300   166.4465       330.93481     -2267.8366      7.272036      -2260.5646     -27604.559    
    196350   148.72719      295.70466     -2267.0666      6.4978806     -2260.5687     -31321.117    
    196400   156.18457      310.53168     -2267.4055      6.8236928     -2260.5818     -26383.404    
    196450   158.2519       314.64202     -2267.5081      6.9140145     -2260.5941     -28016.842    
    196500   166.35913      330.76108     -2267.8652      7.2682184     -2260.597      -29614.575    
    196550   150.09608      298.42631     -2267.1665      6.5576869     -2260.6089     -30128.906    
    196600   169.26053      336.52976     -2268.0109      7.3949805     -2260.6159     -30239.77     
    196650   165.31402      328.68317     -2267.8637      7.2225577     -2260.6411     -24532.836    
    196700   163.19376      324.4676      -2267.7787      7.1299239     -2260.6488     -26234.009    
    196750   158.82643      315.78432     -2267.588       6.9391155     -2260.6489     -29438.016    
    196800   162.28321      322.65722     -2267.7587      7.0901421     -2260.6685     -30132.649    
    196850   160.37859      318.87036     -2267.6924      7.006929      -2260.6855     -27791.383    
    196900   162.98001      324.04262     -2267.8237      7.1205853     -2260.7031     -26778.245    
    196950   166.7315       331.50146     -2268.0049      7.2844876     -2260.7205     -23894.828    
    197000   163.38526      324.84833     -2267.8648      7.1382902     -2260.7265     -27807.72     
    197050   172.96775      343.90058     -2268.3059      7.5569485     -2260.749      -29094.94     
    197100   167.47321      332.97614     -2268.0784      7.3168924     -2260.7615     -27305.536    
    197150   160.40421      318.92132     -2267.7907      7.0080487     -2260.7827     -25749.178    
    197200   173.44309      344.84567     -2268.3894      7.5777163     -2260.8117     -25124.705    
    197250   164.92339      327.9065      -2268.0242      7.205491      -2260.8187     -27633.389    
    197300   148.99157      296.2303      -2267.3399      6.5094313     -2260.8305     -30320.53     
    197350   164.88229      327.82479     -2268.0585      7.2036956     -2260.8548     -30313.221    
    197400   164.61903      327.30137     -2268.0657      7.1921939     -2260.8735     -29360.548    
    197450   164.76424      327.59008     -2268.0999      7.198538      -2260.9013     -30065.794    
    197500   151.83557      301.88484     -2267.5347      6.6336853     -2260.901      -26850.502    
    197550   167.96001      333.94403     -2268.2731      7.338161      -2260.935      -25620.7      
    197600   153.44101      305.07683     -2267.6486      6.7038269     -2260.9448     -27882.822    
    197650   148.39345      295.04109     -2267.4444      6.4832993     -2260.9611     -31096.778    
    197700   163.9408       325.95289     -2268.1576      7.1625621     -2260.995      -27051.484    
    197750   147.49826      293.26124     -2267.4501      6.4441883     -2261.0059     -26240.407    
    197800   159.1003       316.32884     -2267.9911      6.9510809     -2261.04       -25022.433    
    197850   154.79334      307.76558     -2267.8169      6.7629101     -2261.054      -27789.05     
    197900   161.12819      320.36076     -2268.1184      7.0396794     -2261.0787     -28705.065    
    197950   152.49148      303.18895     -2267.7688      6.6623421     -2261.1065     -24693.392    
    198000   158.43474      315.00554     -2268.0432      6.9220025     -2261.1212     -28212.548    
    198050   148.4369       295.12749     -2267.6339      6.4851977     -2261.1487     -30914.499    
    198100   152.56568      303.33647     -2267.8336      6.6655837     -2261.168      -26182.872    
    198150   159.32037      316.76639     -2268.1651      6.9606957     -2261.2044     -26186.428    
    198200   163.35305      324.7843      -2268.3659      7.1368831     -2261.229      -27791.954    
    198250   154.34465      306.87349     -2267.9906      6.743307      -2261.2473     -25900.09     
    198300   147.64801      293.55898     -2267.7118      6.4507311     -2261.261      -28350.365    
    198350   151.26957      300.75949     -2267.9008      6.6089566     -2261.2918     -32612.258    
    198400   151.66796      301.55158     -2267.9466      6.6263623     -2261.3203     -26192.698    
    198450   149.03755      296.32172     -2267.848       6.51144       -2261.3366     -27537.552    
    198500   154.82645      307.83141     -2268.1221      6.7643565     -2261.3578     -32477.754    
    198550   136.29816      270.9928      -2267.333       5.9548567     -2261.3781     -28661.06     
    198600   156.78795      311.73133     -2268.2504      6.8500542     -2261.4004     -27619.632    
    198650   145.9204       290.1241      -2267.7846      6.3752521     -2261.4093     -30092.781    
    198700   159.0276       316.18428     -2268.3825      6.9479044     -2261.4346     -28033.904    
    198750   158.73614      315.6048      -2268.3805      6.9351707     -2261.4453     -27590.038    
    198800   150.50026      299.22993     -2268.0289      6.5753458     -2261.4536     -23598.117    
    198850   153.78315      305.75708     -2268.1927      6.7187749     -2261.4739     -23546.276    
    198900   156.6175       311.39243     -2268.3482      6.8426072     -2261.5056     -28445.973    
    198950   156.62657      311.41047     -2268.3764      6.8430037     -2261.5334     -28173.659    
    199000   155.10345      308.38215     -2268.327       6.7764587     -2261.5506     -29487.404    
    199050   151.45869      301.13552     -2268.1972      6.6172195     -2261.58       -25571.685    
    199100   143.68209      285.6738      -2267.8671      6.2774604     -2261.5896     -26854.516    
    199150   146.49162      291.25981     -2268.0082      6.4002085     -2261.608      -29407.146    
    199200   154.39538      306.97434     -2268.3708      6.7455231     -2261.6252     -32613.131    
    199250   140.56956      279.48535     -2267.7791      6.1414739     -2261.6376     -31257.055    
    199300   148.22989      294.7159      -2268.1287      6.4761534     -2261.6526     -29568.514    
    199350   154.03282      306.25348     -2268.4015      6.7296828     -2261.6718     -29728.253    
    199400   143.52736      285.36616     -2267.9431      6.2707002     -2261.6724     -27769.666    
    199450   152.2949       302.7981      -2268.3414      6.6537534     -2261.6876     -28446.37     
    199500   147.36993      293.0061      -2268.1405      6.4385818     -2261.7019     -27803.184    
    199550   147.95023      294.15986     -2268.1845      6.4639349     -2261.7205     -26084.331    
    199600   159.70945      317.53997     -2268.7076      6.9776946     -2261.7299     -27583.003    
    199650   148.14748      294.55205     -2268.2115      6.4725529     -2261.7389     -29730.997    
    199700   163.88656      325.84505     -2268.9121      7.1601923     -2261.7519     -29600.963    
    199750   153.02855      304.25676     -2268.457       6.6858064     -2261.7712     -29679.509    
    199800   156.14449      310.45199     -2268.6046      6.8219418     -2261.7826     -26195.758    
    199850   142.44424      283.21267     -2268.0205      6.2233789     -2261.7971     -27594.023    
    199900   152.10714      302.42478     -2268.4591      6.64555       -2261.8135     -25344.491    
    199950   142.51357      283.35051     -2268.0482      6.2264078     -2261.8218     -28041.677    
    200000   151.55343      301.32387     -2268.4516      6.6213584     -2261.8302     -32433.239    
colvars: Saving collective variables state to "out.colvars.state".
colvars:   Writing TI PMF to file "out.metadynamics1.ti.pmf".
Loop time of 982.601 on 4 procs for 200000 steps with 339 atoms

Performance: 8.793 ns/day, 2.729 hours/ns, 203.541 timesteps/s, 69.001 katom-step/s
134.4% CPU use with 4 MPI tasks x 1 OpenMP threads

MPI task timing breakdown:
Section |  min time  |  avg time  |  max time  |%varavg| %total
---------------------------------------------------------------
Pair    | 269.93     | 713.46     | 947.67     | 993.5 | 72.61
Neigh   | 0.034052   | 0.99809    | 1.9933     |  70.2 |  0.10
Comm    | 12.147     | 88.356     | 203.97     | 754.3 |  8.99
Output  | 5.1377     | 6.0242     | 7.0302     |  35.5 |  0.61
Modify  | 11.8       | 171.14     | 644.29     |2088.2 | 17.42
Other   |            | 2.624      |            |       |  0.27

Nlocal:          84.75 ave         147 max           1 min
Histogram: 1 0 0 0 0 0 2 0 0 1
Nghost:        1152.25 ave        1663 max         525 min
Histogram: 1 0 0 0 0 1 1 0 0 1
Neighs:              0 ave           0 max           0 min
Histogram: 4 0 0 0 0 0 0 0 0 0
FullNghs:      16881.5 ave       35096 max          50 min
Histogram: 1 0 0 1 0 1 0 0 0 1

Total # of neighbors = 67526
Ave neighs/atom = 199.19174
Neighbor list builds = 1668
Dangerous builds = 1
System init for write_data ...
Generated 0 of 6 mixed pair_coeff terms from geometric mixing rule

CITE-CITE-CITE-CITE-CITE-CITE-CITE-CITE-CITE-CITE-CITE-CITE-CITE

Your simulation uses code contributions which should be cited:
- Colvars module (Fiorin2013, plus other works listed for specific features)
The log file lists these citations in BibTeX format.

CITE-CITE-CITE-CITE-CITE-CITE-CITE-CITE-CITE-CITE-CITE-CITE-CITE

Total wall time: 0:16:47
