LAMMPS (2 Aug 2023)
OMP_NUM_THREADS environment is not set. Defaulting to 1 thread. (src/comm.cpp:98)
  using 1 OpenMP thread(s) per MPI task
Loaded 1 plugins from /work/home/baoergen22b/apprepo/deepmd/v2.2.9-dtk23.10/app/lib/deepmd_lmp
package gpu 4
# system
units        metal
dimension    3
atom_style   atomic
boundary     p p f

# 设置原子映射
atom_modify map array

# initial stucture
read_data POSCAR.lmp
Reading data file ...
  orthogonal box = (0 0 0) to (11.328 12.015 32)
  1 by 1 by 4 MPI processor grid
  reading atoms ...
  338 atoms
  read_data CPU = 0.084 seconds
mass      1 55.845
mass      2 15.999
mass      3 1.008
mass      4  35.450

# potential
pair_style deepmd graph-compress.pb
Summary of lammps deepmd module ...
  >>> Info of deepmd-kit:
  installed to:       /work/home/wys974137909/shangcheng/deepmd-kit/20240715/deepmd-kit_v2.2.9/install
  source:             v2.2.9
  source branch:      HEAD
  source commit:      be43748
  source commit at:   2024-02-04 13:44:12 +0800
  support model ver.: 1.1 
  build variant:      rocm
  build with tf inc:  /work/home/wys974137909/shangcheng/miniconda3/envs/deepmd-kit-v2.2.9/lib/python3.8/site-packages/tensorflow/include;/work/home/wys974137909/shangcheng/miniconda3/envs/deepmd-kit-v2.2.9/lib/python3.8/site-packages/tensorflow/include
  build with tf lib:  /work/home/wys974137909/shangcheng/miniconda3/envs/deepmd-kit-v2.2.9/lib/python3.8/site-packages/tensorflow/lib/libtensorflow_cc.so
  set tf intra_op_parallelism_threads: 0
  set tf inter_op_parallelism_threads: 0
  >>> Info of lammps module:
  use deepmd-kit at:  /work/home/wys974137909/shangcheng/deepmd-kit/20240715/deepmd-kit_v2.2.9/install
  source:             v2.2.9
  source branch:      HEAD
  source commit:      be43748
  source commit at:   2024-02-04 13:44:12 +0800
  build float prec:   double
  build with tf inc:  /work/home/wys974137909/shangcheng/miniconda3/envs/deepmd-kit-v2.2.9/lib/python3.8/site-packages/tensorflow/include;/work/home/wys974137909/shangcheng/miniconda3/envs/deepmd-kit-v2.2.9/lib/python3.8/site-packages/tensorflow/include
  build with tf lib:  /work/home/wys974137909/shangcheng/miniconda3/envs/deepmd-kit-v2.2.9/lib/python3.8/site-packages/tensorflow/lib/libtensorflow_cc.so
pair_coeff * *

# 固定原子受力、速度为 0
group fixed id 1:168
168 atoms in group fixed
group mobile subtract all fixed
170 atoms in group mobile
fix freeze_fixed fixed setforce 0.0 0.0 0.0
velocity fixed set 0 0 0

# 在z=27处添加硬性反射墙
fix wall1 mobile wall/reflect zhi 26

# 计算mobile组的温度
compute mTemp mobile temp
thermo 50
thermo_style custom step temp c_mTemp pe ke etotal press
velocity mobile  create 298.15 12345 mom yes rot yes

#fix ensemble mobile  nvt temp 298.15 298.15 1
#timestep 0.0005
#run 15000
#unfix ensemble        # 结束预平衡的NVT

fix ensemble mobile  nvt temp 298.15 298.15 1
fix meta  all colvars pmf.in tstat ensemble
timestep 0.0005
dump trace all custom 10 md.lammpstrj id type x y z
run 200000

CITE-CITE-CITE-CITE-CITE-CITE-CITE-CITE-CITE-CITE-CITE-CITE-CITE

Your simulation uses code contributions which should be cited:

- GPU package (short-range, long-range and three-body potentials): doi:10.1016/j.cpc.2010.12.021, doi:10.1016/j.cpc.2011.10.012, doi:10.1016/j.cpc.2013.08.002, doi:10.1016/j.commatsci.2014.10.068, doi:10.1016/j.cpc.2016.10.020, doi:10.3233/APC200086

@Article{Brown11,
 author = {W. M. Brown and P. Wang and S. J. Plimpton and A. N. Tharrington},
 title = {Implementing Molecular Dynamics on Hybrid High Performance Computers---Short Range Forces},
 journal = {Comput.\ Phys.\ Commun.},
 year =    2011,
 volume =  182,
 pages =   {898--911},
 doi =     {10.1016/j.cpc.2010.12.021}
}

@Article{Brown12,
 author = {W. M. Brown and A. Kohlmeyer and S. J. Plimpton and A. N. Tharrington},
 title = {Implementing Molecular Dynamics on Hybrid High Performance Computers - Particle-Particle Particle-Mesh},
 journal = {Comput.\ Phys.\ Commun.},
 year =    2012,
 volume =  183,
 doi =     {10.1016/j.cpc.2011.10.012},
 pages =   {449--459}
}

@Article{Brown13,
 author = {W. M. Brown and Y. Masako},
 title = {Implementing Molecular Dynamics on Hybrid High Performance Computers---Three-Body Potentials},
 journal = {Comput.\ Phys.\ Commun.},
 year =    2013,
 volume =  184,
 pages =   {2785--2793},
 doi =     {10.1016/j.cpc.2013.08.002},
}

@Article{Trung15,
 author = {T. D. Nguyen and S. J. Plimpton},
 title = {Accelerating Dissipative Particle Dynamics Simulations for Soft Matter Systems},
 journal = {Comput.\ Mater.\ Sci.},
 year =    2015,
 doi =     {10.1016/j.commatsci.2014.10.068},
 volume =  100,
 pages =   {173--180}
}

@Article{Trung17,
 author = {T. D. Nguyen},
 title = {{GPU}-Accelerated {T}ersoff Potentials for Massively Parallel
    Molecular Dynamics Simulations},
 journal = {Comput.\ Phys.\ Commun.},
 year =    2017,
 doi =     {10.1016/j.cpc.2016.10.020},
 volume =  212,
 pages =   {113--122}
}

@inproceedings{Nikolskiy19,
 author = {V. Nikolskiy and V. Stegailov},
 title = {{GPU} Acceleration of Four-Site Water Models in {LAMMPS}},
 booktitle = {Proceedings of the International Conference on Parallel
    Computing (ParCo 2019), Prague, Czech Republic},
 doi =     {10.3233/APC200086},
 year =    2019
}

- USER-DEEPMD package:

@article{Wang_ComputPhysCommun_2018_v228_p178,
  author = {Wang, Han and Zhang, Linfeng and Han, Jiequn and E, Weinan},
  doi = {10.1016/j.cpc.2018.03.016},
  url = {https://doi.org/10.1016/j.cpc.2018.03.016},
  year = 2018,
  month = {jul},
  publisher = {Elsevier {BV}},
  volume = 228,
  journal = {Comput. Phys. Commun.},
  title = {{DeePMD-kit: A deep learning package for many-body potential energy representation and molecular dynamics}},
  pages = {178--184}
}
@misc{Zeng_JChemPhys_2023_v159_p054801,
  title  = {{DeePMD-kit v2: A software package for deep potential models}},
  author =   {Jinzhe Zeng and Duo Zhang and Denghui Lu and Pinghui Mo and Zeyu Li
         and Yixiao Chen and Mari{\'a}n Rynik and Li'ang Huang and Ziyao Li and 
         Shaochen Shi and Yingze Wang and Haotian Ye and Ping Tuo and Jiabin
         Yang and Ye Ding and Yifan Li and Davide Tisi and Qiyu Zeng and Han 
         Bao and Yu Xia and Jiameng Huang and Koki Muraoka and Yibo Wang and 
         Junhan Chang and Fengbo Yuan and Sigbj{\o}rn L{\o}land Bore and Chun
         Cai and Yinnian Lin and Bo Wang and Jiayan Xu and Jia-Xin Zhu and 
         Chenxing Luo and Yuzhi Zhang and Rhys E A Goodall and Wenshuo Liang
         and Anurag Kumar Singh and Sikai Yao and Jingchao Zhang and Renata
         Wentzcovitch and Jiequn Han and Jie Liu and Weile Jia and Darrin M
         York and Weinan E and Roberto Car and Linfeng Zhang and Han Wang},
  journal =  {J. Chem. Phys.},
  volume =   159,
  issue =    5,  
  year =    2023,
  pages  =   054801,
  doi =      {10.1063/5.0155600},
}

CITE-CITE-CITE-CITE-CITE-CITE-CITE-CITE-CITE-CITE-CITE-CITE-CITE

Generated 0 of 6 mixed pair_coeff terms from geometric mixing rule
Neighbor list info ...
  update: every = 1 steps, delay = 0 steps, check = yes
  max neighbors/atom: 2000, page size: 100000
  master list distance cutoff = 8
  ghost atom cutoff = 8
  binsize = 4, bins = 3 4 8
  1 neighbor lists, perpetual/occasional/extra = 1 0 0
  (1) pair deepmd, perpetual
      attributes: full, newton on
      pair build: full/bin/atomonly
      stencil: full/bin/3d
      bin: standard
colvars: Creating proxy instance
colvars: ----------------------------------------------------------------------
colvars: Initializing the collective variables module, version 2023-05-01.
colvars: Please cite Fiorin et al, Mol Phys 2013:
colvars:   https://doi.org/10.1080/00268976.2013.813594
colvars: as well as all other papers listed below for individual features used.
colvars: This version was built with the C++11 standard or higher.
colvars: Using LAMMPS interface, version "2023-04-12".
colvars: ----------------------------------------------------------------------
colvars: Reading new configuration from file "pmf.in":
colvars: # units = "" [default]
colvars: # smp = on [default]
colvars: # colvarsTrajFrequency = 100 [default]
colvars: # colvarsRestartFrequency = 0 [default]
colvars: # scriptedColvarForces = off [default]
colvars: # scriptingAfterBiases = off [default]
colvars: ----------------------------------------------------------------------
colvars:   Initializing a new collective variable.
colvars:   # name = "cn_H_Fe"
colvars:   Initializing a new "coordNum" component.
colvars:     # name = "" [default]
colvars:     # componentCoeff = 1 [default]
colvars:     # componentExp = 1 [default]
colvars:     # period = 0 [default]
colvars:     # wrapAround = 0 [default]
colvars:     # forceNoPBC = off [default]
colvars:     # scalable = on [default]
colvars:       Initializing atom group "group1".
colvars:       # name = "" [default]
colvars:       # centerToOrigin = off [default]
colvars:       # centerToReference = off [default]
colvars:       # rotateToReference = off [default]
colvars:       # atomsOfGroup = "" [default]
colvars:       # indexGroup = "" [default]
colvars:       # psfSegID =  [default]
colvars:       # atomsFile = "" [default]
colvars:       # dummyAtom = ( 0 , 0 , 0 ) [default]
colvars:       # enableFitGradients = on [default]
colvars:       # printAtomIDs = off [default]
colvars:       Atom group "group1" defined with 1 atoms requested.
colvars:       Initializing atom group "group2".
colvars:       # name = "" [default]
colvars:       # centerToOrigin = off [default]
colvars:       # centerToReference = off [default]
colvars:       # rotateToReference = off [default]
colvars:       # atomsOfGroup = "" [default]
colvars:       # indexGroup = "" [default]
colvars:       # psfSegID =  [default]
colvars:       # atomsFile = "" [default]
colvars:       # dummyAtom = ( 0 , 0 , 0 ) [default]
colvars:       # enableFitGradients = on [default]
colvars:       # printAtomIDs = off [default]
colvars:       Atom group "group2" defined with 168 atoms requested.
colvars:     # cutoff = 2.5
colvars:     # cutoff3 = ( 4 , 4 , 4 ) [default]
colvars:     # expNumer = 6 [default]
colvars:     # expDenom = 12 [default]
colvars:     # group2CenterOnly = off [default]
colvars:     # tolerance = 0 [default]
colvars:   All components initialized.
colvars:   # timeStepFactor = 1 [default]
colvars:   # width = 0.1
colvars:   # lowerBoundary = 0
colvars:   # upperBoundary = 6
colvars:   # hardLowerBoundary = on
colvars:   # hardUpperBoundary = off [default]
colvars:   # expandBoundaries = off [default]
colvars:   # extendedLagrangian = off [default]
colvars:   # outputValue = on [default]
colvars:   # outputVelocity = off [default]
colvars:   # outputTotalForce = off [default]
colvars:   # outputAppliedForce = off [default]
colvars:   # subtractAppliedForce = off [default]
colvars:   # runAve = off [default]
colvars:   # corrFunc = off [default]
colvars: ----------------------------------------------------------------------
colvars:   Initializing a new collective variable.
colvars:   # name = "cn_H_O"
colvars:   Initializing a new "coordNum" component.
colvars:     # name = "" [default]
colvars:     # componentCoeff = 1 [default]
colvars:     # componentExp = 1 [default]
colvars:     # period = 0 [default]
colvars:     # wrapAround = 0 [default]
colvars:     # forceNoPBC = off [default]
colvars:     # scalable = on [default]
colvars:       Initializing atom group "group1".
colvars:       # name = "" [default]
colvars:       # centerToOrigin = off [default]
colvars:       # centerToReference = off [default]
colvars:       # rotateToReference = off [default]
colvars:       # atomsOfGroup = "" [default]
colvars:       # indexGroup = "" [default]
colvars:       # psfSegID =  [default]
colvars:       # atomsFile = "" [default]
colvars:       # dummyAtom = ( 0 , 0 , 0 ) [default]
colvars:       # enableFitGradients = on [default]
colvars:       # printAtomIDs = off [default]
colvars:       Atom group "group1" defined with 1 atoms requested.
colvars:       Initializing atom group "group2".
colvars:       # name = "" [default]
colvars:       # centerToOrigin = off [default]
colvars:       # centerToReference = off [default]
colvars:       # rotateToReference = off [default]
colvars:       # atomsOfGroup = "" [default]
colvars:       # indexGroup = "" [default]
colvars:       # psfSegID =  [default]
colvars:       # atomsFile = "" [default]
colvars:       # dummyAtom = ( 0 , 0 , 0 ) [default]
colvars:       # enableFitGradients = on [default]
colvars:       # printAtomIDs = off [default]
colvars:       Atom group "group2" defined with 56 atoms requested.
colvars:     # cutoff = 2.5
colvars:     # cutoff3 = ( 4 , 4 , 4 ) [default]
colvars:     # expNumer = 6 [default]
colvars:     # expDenom = 12 [default]
colvars:     # group2CenterOnly = off [default]
colvars:     # tolerance = 0 [default]
colvars:   All components initialized.
colvars:   # timeStepFactor = 1 [default]
colvars:   # width = 0.1
colvars:   # lowerBoundary = 0
colvars:   # upperBoundary = 7
colvars:   # hardLowerBoundary = off [default]
colvars:   # hardUpperBoundary = off [default]
colvars:   # expandBoundaries = off [default]
colvars:   # extendedLagrangian = off [default]
colvars:   # outputValue = on [default]
colvars:   # outputVelocity = off [default]
colvars:   # outputTotalForce = off [default]
colvars:   # outputAppliedForce = off [default]
colvars:   # subtractAppliedForce = off [default]
colvars:   # runAve = off [default]
colvars:   # corrFunc = off [default]
colvars: ----------------------------------------------------------------------
colvars: Collective variables initialized, 2 in total.
colvars: ----------------------------------------------------------------------
colvars:   Initializing a new "metadynamics" instance.
colvars:   # name = "meta2d"
colvars:   # colvars = { cn_H_Fe, cn_H_O }
colvars:   # stepZeroData = off [default]
colvars:   # outputEnergy = off [default]
colvars:   # outputFreq = 0 [default]
colvars:   # timeStepFactor = 1 [default]
colvars:   # writeTISamples = off [default]
colvars:   # writeTIPMF = off [default]
colvars:   # hillWeight = 0.1
colvars:   # newHillFrequency = 300
colvars:   # gaussianSigmas =  [default]
colvars:   # hillWidth = 1
colvars:   Half-widths of the Gaussian hills (sigma's):
colvars:   cn_H_Fe: 0.05
colvars:   cn_H_O: 0.05
colvars:   # multipleReplicas = off [default]
colvars:   # useGrids = on [default]
colvars:   # gridsUpdateFrequency = 300 [default]
colvars:   # rebinGrids = off [default]
colvars:   # writeFreeEnergyFile = on [default]
colvars:   # keepHills = off [default]
colvars:   # keepFreeEnergyFiles = off [default]
colvars:   # writeHillsTrajectory = off [default]
colvars:   # wellTempered = off [default]
colvars:   # biasTemperature = 800
colvars:   # ebMeta = off [default]
colvars: ----------------------------------------------------------------------
colvars: Collective variables biases initialized, 1 in total.
colvars: ----------------------------------------------------------------------
colvars: Collective variables module (re)initialized.
colvars: ----------------------------------------------------------------------
colvars: Re-initialized atom group for variable "cn_H_Fe":0/0. 1 atoms: total mass = 1.008, total charge = 4.65184e-310.
colvars: Re-initialized atom group for variable "cn_H_Fe":0/1. 168 atoms: total mass = 9381.96, total charge = 2.83762e-308.
colvars: Re-initialized atom group for variable "cn_H_O":0/0. 1 atoms: total mass = 1.008, total charge = 4.65184e-310.
colvars: Re-initialized atom group for variable "cn_H_O":0/1. 56 atoms: total mass = 895.944, total charge = 1.39282e+253.
colvars: The restart output state file will be "rest.colvars.state".
colvars: The final output state file will be "out.colvars.state".
Per MPI rank memory allocation (min/avg/max) = 3.141 | 3.163 | 3.179 Mbytes
   Step          Temp         c_mTemp         PotEng         KinEng         TotEng         Press     
         0   149.51736      298.15        -2331.7543      6.5130762     -2325.2412     -14413.619    
        50   145.30804      289.75627     -2331.5716      6.3297154     -2325.2419     -15732.394    
       100   146.22371      291.58219     -2331.6206      6.3696026     -2325.251      -14293.114    
       150   146.55565      292.24411     -2331.6342      6.3840623     -2325.2501     -12467.376    
       200   145.37465      289.88909     -2331.5805      6.3326169     -2325.2479     -14772.826    
       250   144.49829      288.14156     -2331.5313      6.2944421     -2325.2369     -13818.181    
       300   143.01559      285.18493     -2331.4682      6.2298546     -2325.2384     -14947.368    
       350   145.735        290.60767     -2331.5685      6.3483142     -2325.2201     -13748.675    
       400   140.0435       279.25834     -2331.3111      6.1003885     -2325.2107     -12802.976    
       450   131.10076      261.42577     -2330.9314      5.7108367     -2325.2206     -14729.335    
       500   134.82178      268.84581     -2331.0808      5.8729271     -2325.2078     -17215.36     
       550   139.49207      278.15874     -2331.3152      6.0763678     -2325.2388     -13610.615    
       600   146.30124      291.7368      -2331.6014      6.37298       -2325.2284     -12597.05     
       650   153.32988      305.75247     -2331.7765      6.6791519     -2325.0973     -17790.972    
       700   145.03473      289.21126     -2331.4116      6.3178096     -2325.0937     -12060.448    
       750   152.75692      304.60996     -2331.7457      6.6541938     -2325.0915     -12663.927    
       800   144.75247      288.64841     -2331.3886      6.3055143     -2325.0831     -13505.198    
       850   145.18886      289.51861     -2331.3959      6.3245238     -2325.0714     -14582.033    
       900   149.98727      299.08704     -2331.5991      6.5335459     -2325.0655     -12291.321    
       950   141.3426       281.84885     -2331.0429      6.1569781     -2324.8859     -15794.951    
      1000   146.59885      292.33025     -2331.278       6.385944      -2324.892      -12931.896    
      1050   158.02338      315.11171     -2331.8162      6.8836041     -2324.9326     -11590.954    
      1100   147.98916      295.10265     -2331.3695      6.446507      -2324.923      -15646.217    
      1150   148.34927      295.82074     -2331.3649      6.4621936     -2324.9027     -14011.294    
      1200   147.30387      293.73612     -2331.2484      6.416655      -2324.8317     -13429.093    
      1250   151.89341      302.88805     -2331.3361      6.6165786     -2324.7195     -14179.588    
      1300   156.54378      312.16127     -2331.5966      6.8191519     -2324.7774     -16971.178    
      1350   147.63506      294.39653     -2331.1006      6.4310818     -2324.6695     -11412.275    
      1400   147.58022      294.28719     -2331.0866      6.4286932     -2324.6579     -15600.725    
      1450   143.93611      287.02052     -2330.9438      6.2699531     -2324.6738     -12808.278    
      1500   146.40328      291.94027     -2331.0545      6.3774248     -2324.6771     -12356.553    
      1550   144.48713      288.1193      -2330.902       6.2939559     -2324.608      -13145.184    
      1600   152.72087      304.53807     -2331.2314      6.6526233     -2324.5787     -14794.635    
      1650   147.4656       294.05863     -2331.04        6.4237003     -2324.6163     -9962.6266    
      1700   149.06495      297.24785     -2331.0547      6.4933688     -2324.5614     -16016.781    
      1750   157.38851      313.84572     -2331.4635      6.8559486     -2324.6075     -13324.856    
      1800   146.85265      292.83635     -2330.9529      6.3969997     -2324.5559     -14622.34     
      1850   152.12821      303.35626     -2331.175       6.6268067     -2324.5482     -15937.508    
      1900   142.21754      283.59356     -2330.6883      6.1950913     -2324.4932     -13817.931    
      1950   146.42014      291.97389     -2330.8332      6.3781592     -2324.455      -14305.973    
      2000   146.2042       291.54328     -2330.8128      6.3687526     -2324.444      -12522.873    
      2050   152.08893      303.27792     -2331.1018      6.6250955     -2324.4767     -10952.069    
      2100   153.29484      305.68261     -2331.2122      6.6776257     -2324.5346     -11057.513    
      2150   157.06367      313.19797     -2331.2254      6.8417985     -2324.3836     -14321.713    
      2200   150.06369      299.23943     -2330.9207      6.5368748     -2324.3839     -15447.713    
      2250   145.30226      289.74475     -2330.6875      6.3294637     -2324.358      -14867.374    
      2300   131.87484      262.96935     -2330.1036      5.7445562     -2324.3591     -13798.842    
      2350   156.17816      311.43218     -2331.1572      6.8032249     -2324.3539     -13706.977    
      2400   155.06325      309.20896     -2331.1465      6.7546589     -2324.3919     -14403.825    
      2450   167.76483      334.53697     -2331.28        7.3079483     -2323.972      -13655.997    
      2500   150.92845      300.96383     -2330.5546      6.5745442     -2323.9801     -13483.84     
      2550   165.87431      330.76712     -2331.2636      7.225596      -2324.038      -11881.205    
      2600   146.95641      293.04325     -2330.566       6.4015194     -2324.1645     -15291.433    
      2650   158.95876      316.97693     -2331.0931      6.9243498     -2324.1688     -13142.844    
      2700   149.3136       297.74368     -2330.6476      6.5042002     -2324.1434     -15729.755    
      2750   155.10674      309.29568     -2330.8248      6.7565532     -2324.0682     -14332.952    
      2800   153.10054      305.29517     -2330.6768      6.6691621     -2324.0076     -13198.686    
      2850   163.28266      325.59915     -2331.0569      7.112702      -2323.9442     -13360.512    
      2900   150.23615      299.58333     -2330.4728      6.5443873     -2323.9285     -11188.011    
      2950   148.36028      295.84269     -2330.403       6.462673      -2323.9403     -14367.423    
      3000   157.30493      313.67906     -2330.7542      6.8523079     -2323.9019     -12120.548    
      3050   159.51317      318.08247     -2330.7261      6.9485002     -2323.7776     -13446.064    
      3100   153.78094      306.65194     -2330.6835      6.6988008     -2323.9847     -13345.172    
      3150   161.32836      321.70211     -2330.8764      7.0275711     -2323.8489     -11259.438    
      3200   157.08368      313.23787     -2330.6722      6.8426702     -2323.8295     -16014.615    
      3250   171.34059      341.66734     -2331.2179      7.4637108     -2323.7542     -12089.686    
      3300   175.21107      349.3854      -2331.2765      7.6323116     -2323.6442     -12993.601    
      3350   153.99508      307.07895     -2330.5976      6.7081288     -2323.8895     -12285.522    
      3400   155.54652      310.17264     -2330.4818      6.7757104     -2323.706      -13818.722    
      3450   163.70783      326.44698     -2330.8248      7.1312226     -2323.6936     -12251.849    
      3500   161.38958      321.8242      -2330.6995      7.0302382     -2323.6693     -14197.506    
      3550   168.83497      336.67092     -2331.002       7.3545642     -2323.6474     -11445.32     
      3600   164.29587      327.61958     -2330.7161      7.156838      -2323.5593     -14404.646    
      3650   167.47495      333.95892     -2330.6255      7.2953208     -2323.3302     -13687.699    
      3700   171.35692      341.69988     -2330.6379      7.4644218     -2323.1735     -13868.345    
      3750   167.22511      333.46072     -2330.6019      7.2844375     -2323.3174     -14250.754    
      3800   155.60822      310.29569     -2329.9474      6.7783983     -2323.169      -13040.007    
      3850   165.76539      330.54991     -2330.3964      7.2208511     -2323.1756     -12828.593    
      3900   167.33781      333.68546     -2330.4776      7.289347      -2323.1882     -14883.468    
      3950   160.22169      319.49532     -2329.9407      6.9793638     -2322.9614     -12024.136    
      4000   181.39825      361.72314     -2330.7355      7.9018291     -2322.8337     -16100.803    
      4050   161.33558      321.71651     -2329.4935      7.0278858     -2322.4657     -14104.318    
      4100   167.81672      334.64044     -2329.9442      7.3102086     -2322.634      -14328.55     
      4150   175.06193      349.08799     -2330.2735      7.6258147     -2322.6477     -14371.469    
      4200   172.29996      343.58039     -2330.0804      7.5055015     -2322.5749     -16019.128    
      4250   165.23837      329.49899     -2329.8374      7.1978938     -2322.6396     -15676.815    
      4300   177.51775      353.98511     -2330.1471      7.7327921     -2322.4143     -15162.347    
      4350   162.11922      323.27915     -2329.491       7.0620216     -2322.429      -12421.694    
      4400   157.11882      313.30795     -2329.3154      6.8442009     -2322.4712     -14490.444    
      4450   167.52308      334.05489     -2329.8581      7.2974173     -2322.5607     -14768.241    
      4500   160.29208      319.6357      -2329.5628      6.9824304     -2322.5804     -12627.196    
      4550   163.73449      326.50013     -2329.5626      7.1323837     -2322.4302     -15357.997    
      4600   156.70812      312.48898     -2329.2629      6.8263107     -2322.4366     -14552.804    
      4650   166.71659      332.4467      -2329.7278      7.2622863     -2322.4655     -18161.24     
      4700   175.79665      350.55309     -2330.0191      7.6578198     -2322.3613     -11411.233    
      4750   175.91985      350.79875     -2330.0514      7.6631863     -2322.3882     -11978.274    
      4800   169.30313      337.60446     -2329.6093      7.3749575     -2322.2343     -15255.497    
      4850   167.18144      333.37364     -2329.4565      7.2825353     -2322.174      -15470.582    
      4900   172.93812      344.85294     -2329.7434      7.5333003     -2322.2101     -12271.002    
      4950   188.09013      375.0673      -2330.4188      8.1933319     -2322.2254     -12438.879    
      5000   170.87952      340.74792     -2329.628       7.4436263     -2322.1843     -12074.503    
      5050   178.92859      356.79842     -2329.9369      7.7942489     -2322.1427     -13155.195    
      5100   172.21288      343.40675     -2329.5943      7.5017083     -2322.0926     -13053.152    
      5150   166.0348       331.08714     -2329.1964      7.2325869     -2321.9638     -14199.847    
      5200   158.71323      316.48734     -2328.8624      6.9136546     -2321.9488     -14330.619    
      5250   160.22791      319.50773     -2328.8711      6.979635      -2321.8914     -11472.003    
      5300   169.07322      337.14602     -2329.2625      7.3649427     -2321.8976     -15251.438    
      5350   172.15875      343.2988      -2329.2832      7.4993501     -2321.7838     -12144.076    
      5400   166.72628      332.46601     -2329.1195      7.2627083     -2321.8568     -11978.049    
      5450   172.13322      343.24789     -2329.3019      7.498238      -2321.8036     -13419.269    
      5500   185.31092      369.52534     -2329.7776      8.0722678     -2321.7054     -13127.338    
      5550   164.58487      328.19586     -2328.8852      7.1694269     -2321.7157     -14123.832    
      5600   173.20866      345.39241     -2329.2843      7.545085      -2321.7392     -12459.256    
      5650   169.54518      338.08714     -2329.1108      7.3855015     -2321.7253     -11326.213    
      5700   186.36617      371.62959     -2329.9019      8.1182351     -2321.7837     -13258.426    
      5750   180.78182      360.49393     -2329.6066      7.8749771     -2321.7317     -14633.993    
      5800   174.94258      348.84999     -2329.4358      7.6206157     -2321.8152     -14385.383    
      5850   169.9395       338.87344     -2329.0654      7.4026783     -2321.6627     -12907.057    
      5900   171.31248      341.61128     -2329.1872      7.4624863     -2321.7247     -17782.722    
      5950   175.47811      349.91789     -2329.4904      7.6439439     -2321.8465     -12066.255    
      6000   174.29434      347.55736     -2329.5882      7.5923782     -2321.9959     -14296.245    
      6050   167.21678      333.44412     -2329.0875      7.2840749     -2321.8035     -14286.586    
      6100   166.8777       332.76796     -2329.2782      7.2693043     -2322.0089     -16670.647    
      6150   166.64845      332.31082     -2329.4274      7.2593181     -2322.1681     -13022.797    
      6200   187.38851      373.66822     -2330.5044      8.162769      -2322.3416     -13632.918    
      6250   174.31679      347.60212     -2329.9675      7.5933561     -2322.3741     -13662.002    
      6300   165.17146      329.36557     -2329.4678      7.1949792     -2322.2728     -15584.127    
      6350   167.10062      333.21248     -2329.5766      7.2790147     -2322.2976     -14696.169    
      6400   173.46133      345.89625     -2329.9674      7.5560914     -2322.4113     -14067.973    
      6450   158.12512      315.31459     -2329.3698      6.888036      -2322.4817     -14099.08     
      6500   167.31693      333.64381     -2329.8115      7.2884372     -2322.5231     -16064.873    
      6550   160.27271      319.59705     -2329.581       6.9815863     -2322.5994     -13972.17     
      6600   167.34882      333.70741     -2329.9133      7.2898266     -2322.6235     -15218.09     
      6650   178.60682      356.1568      -2330.1547      7.7802326     -2322.3745     -14268.341    
      6700   172.64642      344.27127     -2329.9389      7.5205937     -2322.4183     -14914.15     
      6750   148.21154      295.54608     -2329.0034      6.4561937     -2322.5472     -15018.59     
      6800   170.92567      340.83994     -2330.1049      7.4456364     -2322.6592     -14612.681    
      6850   172.26971      343.52008     -2330.2644      7.5041839     -2322.7603     -16109.652    
      6900   166.29154      331.5991      -2330.0217      7.2437706     -2322.7779     -13679.518    
      6950   171.42829      341.84221     -2330.2258      7.4675309     -2322.7583     -14330.063    
      7000   176.99342      352.93955     -2330.5115      7.7099519     -2322.8015     -14758.16     
      7050   170.78434      340.55813     -2330.2669      7.4394802     -2322.8274     -14550.821    
      7100   182.73533      364.38939     -2330.7671      7.9600733     -2322.807      -11791.762    
      7150   170.36247      339.71689     -2330.2441      7.4211033     -2322.823      -13781.577    
      7200   191.65997      382.18586     -2331.1865      8.3488365     -2322.8377     -14652.139    
      7250   174.95413      348.87303     -2330.3905      7.6211189     -2322.7694     -13544.015    
      7300   171.74321      342.4702      -2330.2804      7.4812493     -2322.7991     -12613.383    
      7350   163.89573      326.82167     -2329.9731      7.1394078     -2322.8337     -13340.43     
      7400   167.75583      334.51902     -2330.157       7.307556      -2322.8494     -13474.133    
      7450   179.15703      357.25396     -2330.7335      7.8042        -2322.9293     -15842.737    
      7500   169.2906       337.57947     -2330.333       7.3744116     -2322.9586     -12814.396    
      7550   166.77741      332.56797     -2330.2173      7.2649354     -2322.9524     -10463.794    
      7600   169.53087      338.0586      -2330.368       7.3848781     -2322.9831     -15989.587    
      7650   162.37694      323.79308     -2330.1038      7.0732482     -2323.0306     -11392.63     
      7700   163.37843      325.79013     -2330.1559      7.1168739     -2323.039      -13217.195    
      7750   173.64063      346.2538      -2330.6281      7.5639019     -2323.0642     -15819.965    
      7800   159.28432      317.62613     -2330.0644      6.9385315     -2323.1259     -15658.644    
      7850   171.14658      341.28045     -2330.4905      7.4552593     -2323.0352     -14053.398    
      7900   168.60785      336.21802     -2330.4062      7.3446708     -2323.0616     -12624.671    
      7950   154.68506      308.45483     -2329.8298      6.7381849     -2323.0916     -16185.314    
      8000   173.06008      345.09613     -2330.6631      7.5386127     -2323.1244     -15093.417    
      8050   162.31441      323.66839     -2330.204       7.0705244     -2323.1335     -17065.047    
      8100   159.51673      318.08957     -2330.1194      6.9486553     -2323.1707     -16072.623    
      8150   171.25391      341.49449     -2330.5318      7.459935      -2323.0719     -17735.8      
      8200   161.45691      321.95845     -2330.1357      7.033171      -2323.1025     -14579.739    
      8250   168.84984      336.70057     -2330.4636      7.355212      -2323.1084     -17537.229    
      8300   187.61454      374.11893     -2331.2333      8.1726148     -2323.0606     -13349.373    
      8350   177.92153      354.79027     -2330.8565      7.7503809     -2323.1061     -13328.79     
      8400   172.83029      344.63792     -2330.6273      7.5286031     -2323.0987     -13838.622    
      8450   167.0316       333.07484     -2330.4037      7.2760082     -2323.1277     -14077.672    
      8500   153.97373      307.03638     -2329.8496      6.7071988     -2323.1424     -15902.599    
      8550   170.9967       340.98159     -2330.6263      7.4487307     -2323.1776     -16267.553    
      8600   163.09754      325.23        -2330.3112      7.1046378     -2323.2066     -13042.478    
      8650   166.28258      331.58124     -2330.4856      7.2433805     -2323.2422     -15497.164    
      8700   180.10823      359.15072     -2331.0801      7.8456348     -2323.2344     -17712.37     
      8750   177.82784      354.60345     -2330.9896      7.7462997     -2323.2433     -17301.785    
      8800   188.58326      376.05064     -2331.5153      8.2148128     -2323.3005     -12989.68     
      8850   176.33048      351.61759     -2331.1222      7.6810738     -2323.4411     -15965.787    
      8900   182.84007      364.59825     -2331.4014      7.9646357     -2323.4368     -15270.371    
      8950   170.19648      339.38588     -2330.8728      7.4138724     -2323.4589     -13859.867    
      9000   185.97222      370.844       -2331.5971      8.1010741     -2323.496      -16127.955    
      9050   193.19107      385.23899     -2331.7768      8.4155321     -2323.3612     -16120.451    
      9100   181.04887      361.02645     -2331.3182      7.88661       -2323.4315     -13638.213    
      9150   207.80545      414.38128     -2332.5152      9.0521443     -2323.463      -15084.637    
      9200   205.54075      409.86528     -2332.4513      8.9534924     -2323.4978     -14919.625    
      9250   177.83721      354.62212     -2331.2858      7.7467076     -2323.5391     -13366.844    
      9300   191.62465      382.11542     -2331.9663      8.3472978     -2323.619      -15195.424    
      9350   197.21354      393.26014     -2332.0197      8.5907538     -2323.4289     -14219.07     
      9400   200.5762       399.96556     -2332.1322      8.7372336     -2323.395      -15850.163    
      9450   180.94686      360.82303     -2331.3096      7.8821664     -2323.4274     -12038.423    
      9500   190.30642      379.48676     -2331.9313      8.2898747     -2323.6414     -15246.193    
      9550   198.03631      394.9008      -2332.2508      8.6265939     -2323.6242     -16078.078    
      9600   196.48578      391.80892     -2332.1758      8.559052      -2323.6167     -10810.625    
      9650   204.80153      408.39121     -2332.4982      8.9212915     -2323.5769     -16701.48     
      9700   208.31744      415.40222     -2332.678       9.0744469     -2323.6036     -14965.298    
      9750   222.75233      444.18661     -2333.3306      9.7032407     -2323.6273     -13586.784    
      9800   183.39949      365.71378     -2331.3726      7.9890045     -2323.3836     -12419.828    
      9850   191.23761      381.34364     -2331.7961      8.3304382     -2323.4657     -12749.438    
      9900   200.65361      400.11992     -2332.2119      8.7406055     -2323.4712     -12989.494    
      9950   209.86219      418.48259     -2332.4515      9.1417373     -2323.3097     -13688.068    
     10000   203.74129      406.27701     -2332.1939      8.8751069     -2323.3188     -11459.923    
     10050   205.44135      409.66707     -2332.302       8.9491626     -2323.3528     -15966.768    
     10100   198.57451      395.97403     -2332.1131      8.6500386     -2323.4631     -11226.056    
     10150   184.62293      368.15342     -2331.466       8.0422983     -2323.4237     -14965.95     
     10200   209.60395      417.96765     -2332.5927      9.1304884     -2323.4622     -12729.327    
     10250   208.72654      416.21802     -2332.5144      9.0922678     -2323.4222     -14433.877    
     10300   208.86176      416.48765     -2332.6368      9.0981579     -2323.5386     -12838.858    
     10350   187.55351      373.99723     -2331.7704      8.1699562     -2323.6004     -13128.233    
     10400   188.33519      375.55597     -2331.8512      8.2040069     -2323.6472     -12552.331    
     10450   203.16732      405.13246     -2332.5216      8.8501043     -2323.6715     -17405.704    
     10500   202.34408      403.49086     -2332.4813      8.8142434     -2323.6671     -12835.332    
     10550   196.00027      390.84078     -2332.1421      8.537903      -2323.6042     -14750.685    
     10600   208.30538      415.37818     -2332.6512      9.0739216     -2323.5773     -13734.071    
     10650   195.46975      389.78287     -2332.1683      8.5147929     -2323.6535     -12559.96     
     10700   191.34561      381.55899     -2331.899       8.3351427     -2323.5639     -12765.147    
     10750   188.26292      375.41186     -2332.0178      8.2008588     -2323.817      -13408.929    
     10800   181.07719      361.08291     -2331.6864      7.8878434     -2323.7985     -10534.33     
     10850   188.84798      376.57851     -2332.0389      8.2263442     -2323.8125     -13536.195    
     10900   183.65353      366.22035     -2331.9079      8.0000705     -2323.9079     -13165.172    
     10950   203.34105      405.4789      -2332.84        8.8576723     -2323.9823     -11372.606    
     11000   200.15786      399.13135     -2332.7731      8.7190101     -2324.0541     -13801.924    
     11050   198.54186      395.90892     -2332.8538      8.6486164     -2324.2051     -14692.864    
     11100   185.98742      370.87432     -2332.4557      8.1017363     -2324.3539     -13142.224    
     11150   189.40293      377.68514     -2332.6786      8.2505184     -2324.428      -15929.506    
     11200   192.22548      383.31352     -2332.8208      8.3734703     -2324.4474     -10848.113    
     11250   176.09934      351.15666     -2332.1937      7.6710049     -2324.5227     -11877.519    
     11300   173.28951      345.55364     -2332.153       7.5486069     -2324.6044     -10212.154    
     11350   169.61803      338.2324      -2332.0002      7.3886748     -2324.6116     -14842.716    
     11400   181.35288      361.63268     -2332.5733      7.899853      -2324.6735     -10467.025    
     11450   202.20101      403.20556     -2333.4962      8.8080111     -2324.6882     -16914.312    
     11500   194.06549      386.98267     -2333.1956      8.4536227     -2324.742      -10110.957    
     11550   189.15226      377.18527     -2333.0427      8.2395988     -2324.8031     -13536.405    
     11600   182.60065      364.12083     -2332.8181      7.9542066     -2324.8639     -16686.675    
     11650   201.01026      400.83112     -2333.6953      8.7561415     -2324.9391     -16242.943    
     11700   181.43386      361.79414     -2332.967       7.9033802     -2325.0636     -11951.362    
     11750   181.25846      361.44439     -2332.8691      7.8957399     -2324.9733     -13889.199    
     11800   184.08457      367.07989     -2333.0694      8.0188471     -2325.0506     -12335.35     
     11850   187.41027      373.71161     -2333.1372      8.1637168     -2324.9735     -14675.34     
     11900   189.2377       377.35566     -2333.2069      8.2433209     -2324.9635     -17195.116    
     11950   195.34228      389.52869     -2333.2785      8.5092403     -2324.7693     -14939.341    
     12000   191.3353       381.53844     -2333.1562      8.3346937     -2324.8216     -14927.436    
     12050   193.88316      386.61909     -2333.2067      8.4456803     -2324.761      -12487.91     
     12100   187.60031      374.09055     -2332.8995      8.1719948     -2324.7275     -13900.98     
     12150   191.86411      382.59293     -2333.1429      8.3577289     -2324.7851     -14596.809    
     12200   185.6835       370.26828     -2333.0245      8.0884973     -2324.936      -9745.4284    
     12250   195.38518      389.61423     -2333.3408      8.5111091     -2324.8297     -14168.52     
     12300   198.94934      396.72146     -2333.4504      8.6663662     -2324.784      -15822.408    
     12350   181.77541      362.47523     -2332.4284      7.9182584     -2324.5102     -13260.861    
     12400   194.80667      388.46064     -2333.1689      8.4859089     -2324.683      -16749.774    
     12450   213.24748      425.23314     -2334.0044      9.2892028     -2324.7152     -14692.099    
     12500   208.35771      415.48253     -2333.7733      9.076201      -2324.6971     -16216.878    
     12550   195.34122      389.52658     -2333.2453      8.5091943     -2324.7361     -14343.997    
     12600   204.53494      407.85961     -2333.718       8.9096786     -2324.8083     -12766.613    
     12650   184.55498      368.01791     -2332.8844      8.0393383     -2324.8451     -15111.148    
     12700   206.78404      412.34451     -2333.8909      9.0076513     -2324.8832     -15412.264    
     12750   185.18852      369.28125     -2333.0098      8.0669358     -2324.9429     -14626.819    
     12800   189.10733      377.09569     -2333.2378      8.2376419     -2325.0001     -13738.6      
     12850   203.03255      404.86373     -2333.9559      8.8442337     -2325.1117     -14004.714    
     12900   188.46377      375.81236     -2333.3475      8.2096077     -2325.1379     -14468.441    
     12950   189.93882      378.75374     -2333.4752      8.273862      -2325.2013     -13668.989    
     13000   201.69007      402.1867      -2334.1301      8.7857542     -2325.3443     -16706.164    
     13050   196.78694      392.40947     -2333.9912      8.5721708     -2325.419      -15155.549    
     13100   187.37504      373.64135     -2333.6508      8.162182      -2325.4886     -13667.633    
     13150   187.39241      373.67599     -2333.6402      8.1629388     -2325.4772     -15861.144    
     13200   184.75756      368.42189     -2333.5981      8.048163      -2325.55       -13648.123    
     13250   174.77211      348.51007     -2333.1309      7.6131901     -2325.5177     -11513.679    
     13300   168.68282      336.36752     -2332.9261      7.3479366     -2325.5781     -14051.877    
     13350   184.72192      368.35081     -2333.7005      8.0466104     -2325.6539     -14916.57     
     13400   181.41807      361.76265     -2333.6199      7.9026923     -2325.7172     -15156.522    
     13450   184.7924       368.49136     -2333.827       8.0496807     -2325.7773     -12251.321    
     13500   186.6309       372.15747     -2333.9766      8.1297668     -2325.8469     -14028.665    
     13550   177.529        354.00754     -2333.6264      7.7332822     -2325.8932     -11926.777    
     13600   198.07756      394.98307     -2334.5892      8.6283912     -2325.9608     -13278.692    
     13650   179.69667      358.33005     -2333.8529      7.8277072     -2326.0252     -16081.811    
     13700   166.66921      332.35221     -2333.3529      7.2602222     -2326.0926     -14628.128    
     13750   191.01781      380.90533     -2334.4853      8.3208634     -2326.1644     -14538.633    
     13800   172.77401      344.52568     -2333.7084      7.5261513     -2326.1822     -14933.772    
     13850   175.84658      350.65264     -2333.8263      7.6599946     -2326.1663     -14216.531    
     13900   177.65301      354.25481     -2333.7988      7.7386839     -2326.0601     -16164.44     
     13950   167.62083      334.24981     -2333.3924      7.3016753     -2326.0908     -12751.704    
     14000   182.81613      364.55051     -2334.1155      7.963593      -2326.1519     -12350.95     
     14050   160.23637      319.5246      -2333.206       6.9800036     -2326.226      -15279.226    
     14100   165.66055      330.34086     -2333.4962      7.2162845     -2326.2799     -15230.262    
     14150   187.09301      373.07895     -2334.4891      8.1498965     -2326.3392     -13440.915    
     14200   171.60262      342.18984     -2333.8686      7.4751249     -2326.3935     -15733.436    
     14250   184.38689      367.68274     -2334.4867      8.0320164     -2326.4547     -13327.352    
     14300   172.12264      343.2268      -2334.0397      7.4977773     -2326.5419     -14486.318    
     14350   168.67917      336.36024     -2333.9827      7.3477776     -2326.6349     -14883.118    
     14400   150.5026       300.11465     -2333.1694      6.5559938     -2326.6134     -17734.43     
     14450   178.8593       356.66025     -2334.4698      7.7912305     -2326.6785     -12361.8      
     14500   174.51064      347.98866     -2334.3023      7.6018        -2326.7005     -14398.824    
     14550   175.51305      349.98755     -2334.4334      7.6454657     -2326.7879     -13162.396    
     14600   157.01441      313.09974     -2333.6546      6.8396527     -2326.815      -11655.977    
     14650   160.53835      320.12678     -2333.8371      6.9931581     -2326.8439     -13624.064    
     14700   179.98883      358.91264     -2334.8289      7.8404339     -2326.9884     -14658.229    
     14750   166.02196      331.06155     -2334.1086      7.2320278     -2326.8766     -17027.402    
     14800   181.99165      362.90643     -2334.7869      7.927678      -2326.8592     -11782.734    
     14850   169.63085      338.25796     -2334.3151      7.3892332     -2326.9259     -12501.437    
     14900   168.83568      336.67233     -2334.32        7.3545951     -2326.9654     -16429.33     
     14950   170.24482      339.48227     -2334.4396      7.415978      -2327.0236     -13444.308    
     15000   167.41363      333.83665     -2334.3721      7.2926497     -2327.0795     -17317.211    
     15050   157.89826      314.86221     -2334.0734      6.8781539     -2327.1953     -15375.316    
     15100   168.0677       335.14093     -2334.5503      7.3211416     -2327.2292     -14692.947    
     15150   167.34156      333.69293     -2334.571       7.2895102     -2327.2815     -14427.256    
     15200   163.83997      326.71047     -2334.3687      7.1369787     -2327.2317     -16080.176    
     15250   159.61402      318.28357     -2334.2173      6.9528933     -2327.2644     -15189.471    
     15300   160.76794      320.58459     -2334.3103      7.0031589     -2327.3072     -13891.237    
     15350   163.03393      325.10317     -2334.2414      7.1018672     -2327.1395     -13027.922    
     15400   150.81962      300.74681     -2333.704       6.5698033     -2327.1341     -17045.312    
     15450   153.22899      305.55129     -2334.0151      6.6747571     -2327.3403     -12429.236    
     15500   152.23359      303.56638     -2333.8839      6.6313969     -2327.2525     -15415.462    
     15550   157.52316      314.11423     -2334.1314      6.8618142     -2327.2695     -15829.732    
     15600   155.1743       309.43041     -2334.0754      6.7594964     -2327.3159     -12814.722    
     15650   168.57577      336.15405     -2334.3939      7.3432733     -2327.0506     -15356.435    
     15700   168.82993      336.66087     -2334.3644      7.3543447     -2327.01       -14562.571    
     15750   172.06802      343.11789     -2334.4919      7.4953981     -2326.9965     -12721.623    
     15800   165.25262      329.52742     -2334.1304      7.1985147     -2326.9319     -15558.027    
     15850   149.66943      298.45325     -2333.4255      6.5197007     -2326.9058     -11656.016    
     15900   161.04682      321.1407      -2334.0522      7.0153072     -2327.0369     -11590.853    
     15950   159.50676      318.06969     -2333.9075      6.948221      -2326.9592     -13443.951    
     16000   152.62066      304.33823     -2333.6177      6.6482578     -2326.9694     -15695.971    
     16050   166.9248       332.86189     -2334.4296      7.2713561     -2327.1582     -14750.107    
     16100   166.00987      331.03744     -2334.2946      7.2315011     -2327.0631     -14213.875    
     16150   159.2769       317.61133     -2333.987       6.9382083     -2327.0488     -13122.426    
     16200   171.43466      341.85491     -2334.3765      7.4678083     -2326.9087     -12779.326    
     16250   170.83502      340.65919     -2334.2268      7.4416879     -2326.7851     -12174.571    
     16300   184.36083      367.63076     -2334.9566      8.030881      -2326.9258     -14389.232    
     16350   180.51543      359.96272     -2334.9211      7.8633728     -2327.0577     -14424.6      
     16400   182.52369      363.96736     -2334.7518      7.9508541     -2326.801      -14419.046    
     16450   159.45335      317.96318     -2333.7412      6.9458944     -2326.7953     -12282.334    
     16500   144.1536       287.45422     -2333.2226      6.2794273     -2326.9431     -16713.854    
     16550   152.1711       303.44178     -2333.7274      6.6286749     -2327.0987     -12440.796    
     16600   152.85283      304.80121     -2333.8852      6.6583715     -2327.2269     -15648.415    
     16650   157.96103      314.98739     -2334.1138      6.8808883     -2327.2329     -11685.712    
     16700   157.6367       314.34063     -2334.1572      6.86676       -2327.2904     -13945.247    
     16750   156.31637      311.7078      -2334.1666      6.8092458     -2327.3574     -13227.917    
     16800   165.91114      330.84055     -2334.6083      7.2272        -2327.3811     -15931.791    
     16850   167.7891       334.58537     -2334.491       7.3090055     -2327.182      -13782.884    
     16900   176.47383      351.90344     -2334.7604      7.6873181     -2327.0731     -13292.128    
     16950   169.0757       337.15094     -2334.4667      7.3650504     -2327.1017     -12544.017    
     17000   166.43817      331.89149     -2334.5325      7.2501578     -2327.2823     -13041.063    
     17050   168.17873      335.36231     -2334.5649      7.3259778     -2327.2389     -12453.377    
     17100   157.07369      313.21795     -2334.1126      6.842235      -2327.2703     -11702.376    
     17150   151.57393      302.25098     -2333.758       6.6026618     -2327.1553     -12587.565    
     17200   156.59046      312.25435     -2334.0132      6.8211851     -2327.192      -13314.318    
     17250   173.55888      346.09079     -2334.7812      7.560341      -2327.2209     -16106.5      
     17300   147.068        293.26577     -2333.6966      6.4063802     -2327.2903     -12386.031    
     17350   154.41584      307.91797     -2334.0203      6.7264572     -2327.2938     -14662.691    
     17400   153.89977      306.8889      -2333.9828      6.703977      -2327.2788     -10255.045    
     17450   168.46178      335.92675     -2334.4689      7.3383079     -2327.1306     -13333.3      
     17500   167.99408      334.99412     -2334.6492      7.3179347     -2327.3313     -12247.56     
     17550   171.85146      342.68604     -2334.6802      7.4859644     -2327.1942     -14970.256    
     17600   153.96954      307.02803     -2334.0653      6.7070164     -2327.3583     -12623.278    
     17650   151.89825      302.8977      -2334.0545      6.6167895     -2327.4377     -15911.384    
     17700   163.70873      326.44877     -2334.3571      7.1312617     -2327.2258     -11240.619    
     17750   163.73767      326.50648     -2334.0006      7.1325224     -2326.868      -12367.8      
     17800   160.6337       320.3169      -2333.6695      6.9973112     -2326.6722     -11340.539    
     17850   164.60905      328.24408     -2334.0679      7.1704802     -2326.8974     -12873.691    
     17900   172.48995      343.95925     -2334.467       7.5137776     -2326.9532     -13761.388    
     17950   153.3403       305.77326     -2333.6715      6.679606      -2326.9919     -12128.787    
     18000   153.84167      306.77304     -2333.7643      6.7014461     -2327.0628     -15498.769    
     18050   165.15064      329.32407     -2334.2232      7.1940726     -2327.0291     -13977.369    
     18100   174.79608      348.55786     -2334.6415      7.6142341     -2327.0273     -16819.962    
     18150   174.69521      348.35673     -2334.6819      7.6098403     -2327.072      -13089.574    
     18200   154.99247      309.06783     -2333.7501      6.7515759     -2326.9985     -13729.693    
     18250   156.55438      312.1824      -2333.9337      6.8196135     -2327.1141     -15072.978    
     18300   152.05483      303.20993     -2333.8051      6.6236102     -2327.1815     -15695.157    
     18350   158.08588      315.23634     -2334.0742      6.8863267     -2327.1879     -15518.713    
     18400   162.92795      324.89184     -2334.1474      7.0972507     -2327.0501     -12218.671    
     18450   161.65408      322.35163     -2334.1205      7.04176       -2327.0787     -14210.571    
     18500   159.72083      318.49656     -2334.1451      6.957546      -2327.1876     -14371.146    
     18550   166.88105      332.77465     -2334.3176      7.2694504     -2327.0482     -12664.846    
     18600   157.36721      313.80325     -2333.4955      6.8550208     -2326.6405     -13202.944    
     18650   166.39924      331.81388     -2333.771       7.2484623     -2326.5225     -14515.613    
     18700   164.74624      328.51765     -2334.0498      7.1764563     -2326.8734     -10968.216    
     18750   178.15324      355.25231     -2334.643       7.7604742     -2326.8826     -15476.196    
     18800   160.4678       319.9861      -2333.8635      6.9900849     -2326.8734     -15489.597    
     18850   158.1507       315.36559     -2333.7864      6.8891501     -2326.8973     -11733.089    
     18900   171.59417      342.173       -2334.4761      7.474757      -2327.0013     -13784.663    
     18950   179.89826      358.73203     -2334.902       7.8364885     -2327.0655     -13530.007    
     19000   166.94857      332.90928     -2334.0956      7.2723915     -2326.8232     -10181.805    
     19050   165.90808      330.83445     -2334.4377      7.2270669     -2327.2107     -14281.761    
     19100   160.40835      319.86753     -2334.2657      6.9874949     -2327.2782     -11781.324    
     19150   165.14773      329.31825     -2334.5659      7.1939456     -2327.372      -12556.903    
     19200   166.2403       331.49694     -2334.6458      7.2415389     -2327.4042     -14544.065    
     19250   159.8226       318.69951     -2334.3648      6.9619794     -2327.4028     -13374.898    
     19300   158.15839      315.38093     -2334.1579      6.8894852     -2327.2685     -12669.827    
     19350   157.44852      313.96539     -2334.1725      6.8585627     -2327.3139     -10854.248    
     19400   166.14666      331.31021     -2334.7848      7.2374598     -2327.5473     -13308.069    
     19450   170.01362      339.02124     -2335.0418      7.4059069     -2327.6359     -13343.864    
     19500   144.70003      288.54385     -2333.856       6.3032302     -2327.5528     -13242.799    
     19550   154.65997      308.4048      -2334.145       6.7370919     -2327.4079     -11457.794    
     19600   166.02255      331.06272     -2334.6976      7.2320533     -2327.4655     -14269.323    
     19650   156.14532      311.3667      -2334.3325      6.8017946     -2327.5307     -12949.649    
     19700   165.55523      330.13085     -2334.7786      7.2116966     -2327.5669     -14330.21     
     19750   163.59319      326.21837     -2334.4665      7.1262287     -2327.3403     -12701.972    
     19800   151.46754      302.03883     -2334.0097      6.5980276     -2327.4116     -16443.603    
     19850   153.65435      306.3995      -2334.0467      6.6932863     -2327.3534     -15804.514    
     19900   145.32624      289.79256     -2333.7848      6.3305083     -2327.4543     -13947.488    
     19950   184.16582      367.24189     -2335.2315      8.0223861     -2327.2091     -15270.469    
     20000   161.22445      321.49492     -2334.202       7.0230451     -2327.179      -16100.772    
     20050   169.17249      337.34396     -2334.624       7.3692668     -2327.2548     -14780.427    
     20100   175.11353      349.19089     -2334.7519      7.6280626     -2327.1239     -12464.234    
     20150   166.10195      331.22105     -2334.372       7.235512      -2327.1365     -15312.054    
     20200   184.32616      367.56162     -2335.0755      8.0293706     -2327.0462     -15080.241    
     20250   157.49748      314.06303     -2333.8445      6.8606957     -2326.9838     -15257.803    
     20300   168.29968      335.6035      -2334.2904      7.3312465     -2326.9591     -13765.855    
     20350   188.28749      375.46086     -2335.1916      8.2019292     -2326.9897     -16793.433    
     20400   170.39945      339.79062     -2334.165       7.4227141     -2326.7423     -15580.487    
     20450   176.82702      352.60773     -2334.8474      7.7027034     -2327.1447     -12994.06     
     20500   153.29944      305.69177     -2333.8877      6.677826      -2327.2099     -13320.741    
     20550   160.73075      320.51044     -2334.2647      7.0015391     -2327.2631     -13226.803    
     20600   157.21825      313.50622     -2334.1745      6.8485323     -2327.326      -15854.027    
     20650   156.17144      311.41879     -2334.1115      6.8029324     -2327.3086     -14862.582    
     20700   153.16027      305.41427     -2333.992       6.671764      -2327.3202     -15722.885    
     20750   158.29868      315.66068     -2334.2406      6.8955963     -2327.345      -15416.598    
     20800   166.27474      331.56561     -2334.2957      7.2430391     -2327.0527     -12190.606    
     20850   166.55054      332.11557     -2334.3604      7.2550529     -2327.1053     -14659.993    
     20900   157.73536      314.53737     -2333.928       6.8710576     -2327.0569     -14185.342    
     20950   159.00867      317.07647     -2333.9502      6.9265242     -2327.0236     -13073.235    
     21000   151.94423      302.98939     -2333.7457      6.6187924     -2327.127      -15411.624    
     21050   147.53073      294.1885      -2333.4856      6.4265373     -2327.059      -17035.243    
     21100   168.12707      335.2593      -2334.3355      7.3237276     -2327.0118     -12783.439    
     21150   167.4348       333.87886     -2334.2368      7.2935718     -2326.9432     -13080.068    
     21200   179.57018      358.07781     -2334.4943      7.8221971     -2326.6721     -15132.596    
     21250   174.81006      348.58574     -2334.3604      7.6148431     -2326.7455     -13583.841    
     21300   179.80424      358.54455     -2334.4571      7.8323929     -2326.6247     -13732.517    
     21350   180.0577       359.04996     -2334.4106      7.8434336     -2326.5671     -13762.996    
     21400   177.30705      353.56494     -2334.2295      7.7236135     -2326.5059     -12828.11     
     21450   185.87731      370.65476     -2334.5602      8.0969401     -2326.4633     -13822.843    
     21500   182.6547       364.2286      -2333.98        7.9565608     -2326.0235     -16214.861    
     21550   213.18659      425.11172     -2334.4998      9.2865504     -2325.2132     -12748.328    
     21600   167.13852      333.28805     -2333.1033      7.2806657     -2325.8226     -11536.942    
     21650   182.13123      363.18476     -2333.7194      7.9337581     -2325.7857     -12998.473    
     21700   161.26194      321.56967     -2333.0985      7.024678      -2326.0739     -10434.032    
     21750   174.02222      347.01472     -2334.0725      7.5805243     -2326.492      -16300.807    
     21800   158.38422      315.83125     -2333.3634      6.8993225     -2326.4641     -14245.435    
     21850   161.71828      322.47965     -2333.1512      7.0445564     -2326.1067     -13682.838    
     21900   180.62442      360.18006     -2334.1118      7.8681207     -2326.2437     -11435.156    
     21950   169.25903      337.51653     -2333.6969      7.3730366     -2326.3239     -14695.72     
     22000   179.10528      357.15078     -2334.2097      7.801946      -2326.4077     -12996.619    
     22050   186.79708      372.48886     -2334.4178      8.1370059     -2326.2808     -12686.047    
     22100   180.55867      360.04894     -2334.0944      7.8652563     -2326.2291     -11187.271    
     22150   191.18238      381.2335      -2334.439       8.3280322     -2326.1109     -13912.248    
     22200   178.31668      355.57823     -2333.9734      7.7675939     -2326.2058     -13731.402    
     22250   174.51669      348.00073     -2333.7         7.6020636     -2326.098      -11841.152    
     22300   170.14382      339.28088     -2332.9945      7.4115787     -2325.5829     -11830.947    
     22350   165.78946      330.59793     -2332.8626      7.2218999     -2325.6407     -12919.786    
     22400   181.78168      362.48772     -2333.6261      7.9185315     -2325.7076     -14702.208    
     22450   189.42517      377.72949     -2333.8469      8.2514872     -2325.5954     -13863.489    
     22500   163.21341      325.46107     -2332.8089      7.1096855     -2325.6992     -13075.507    
     22550   184.94332      368.79231     -2333.5967      8.0562549     -2325.5405     -13962.108    
     22600   177.47742      353.90467     -2333.2835      7.731035      -2325.5524     -13970.341    
     22650   177.16507      353.28183     -2333.0809      7.7174291     -2325.3635     -13901.725    
     22700   178.27218      355.48949     -2333.2304      7.7656554     -2325.4647     -11052.924    
     22750   181.87834      362.68047     -2333.468       7.922742      -2325.5452     -12884.809    
     22800   182.97758      364.87246     -2333.5857      7.9706259     -2325.6151     -12752.306    
     22850   170.25444      339.50146     -2332.9569      7.4163974     -2325.5405     -15578.416    
     22900   189.93747      378.75106     -2333.6498      8.2738034     -2325.376      -14543.991    
     22950   185.89319      370.68643     -2333.4686      8.0976318     -2325.371      -11484.245    
     23000   184.75419      368.41515     -2333.3056      8.0480159     -2325.2576     -13897.788    
     23050   164.18753      327.40354     -2332.4319      7.1521187     -2325.2798     -12560.862    
     23100   179.9509       358.83699     -2332.9945      7.8387814     -2325.1557     -13299.369    
     23150   191.06917      381.00774     -2333.3152      8.3231006     -2324.9921     -13975.071    
     23200   180.54051      360.01273     -2332.6466      7.8644652     -2324.7821     -13053.067    
     23250   163.25149      325.537       -2331.9508      7.1113442     -2324.8394     -15286.371    
     23300   185.04729      368.99962     -2332.9628      8.0607836     -2324.902      -15731.736    
     23350   172.23059      343.44206     -2332.4657      7.5024797     -2324.9632     -14102.142    
     23400   169.98967      338.97348     -2332.4239      7.4048636     -2325.019      -15086.083    
     23450   182.77815      364.47478     -2333.0259      7.9619386     -2325.064      -15926.981    
     23500   186.98268      372.85895     -2333.177       8.1450905     -2325.0319     -13019.285    
     23550   190.33622      379.54618     -2333.3864      8.2911729     -2325.0952     -13153.243    
     23600   184.58545      368.07867     -2333.24        8.0406655     -2325.1994     -19551.466    
     23650   183.23373      365.38324     -2333.2592      7.981784      -2325.2774     -16009.856    
     23700   169.89477      338.78424     -2332.7038      7.4007297     -2325.3031     -15089.896    
     23750   177.95409      354.85519     -2333.1314      7.7517991     -2325.3796     -19049.792    
     23800   175.66677      350.2941      -2333.0819      7.6521622     -2325.4297     -14243.156    
     23850   175.10203      349.16795     -2333.1151      7.6275614     -2325.4875     -17401.082    
     23900   181.97925      362.8817      -2333.343       7.9271379     -2325.4158     -15675.923    
     23950   190.0292       378.93396     -2333.7234      8.2777989     -2325.4456     -14919.084    
     24000   187.30083      373.49338     -2333.7355      8.1589496     -2325.5765     -19496.822    
     24050   185.50255      369.90745     -2333.7499      8.0806152     -2325.6693     -14519.361    
     24100   194.02744      386.90679     -2334.182       8.451965      -2325.7301     -19254.612    
     24150   190.33087      379.53553     -2334.0776      8.2909401     -2325.7867     -16485.948    
     24200   172.85076      344.67874     -2333.379       7.5294949     -2325.8495     -16100.124    
     24250   204.27309      407.33746     -2334.7619      8.8982724     -2325.8636     -17212.961    
     24300   166.34653      331.70876     -2333.124       7.2461662     -2325.8778     -17695.293    
     24350   161.81448      322.67148     -2332.7847      7.048747      -2325.736      -14047.508    
     24400   181.51588      361.95771     -2333.7056      7.9069533     -2325.7987     -13700.162    
     24450   187.17777      373.24798     -2334.5885      8.1535888     -2326.4349     -13539.33     
     24500   189.29197      377.46386     -2334.5866      8.2456847     -2326.3409     -11973.901    
     24550   158.08221      315.22902     -2333.6656      6.8861668     -2326.7795     -14241.417    
     24600   177.02336      352.99924     -2334.7247      7.7112559     -2327.0135     -12580.596    
     24650   161.95794      322.95754     -2333.9195      7.0549961     -2326.8645     -11830.255    
     24700   177.34639      353.6434      -2334.8416      7.7253276     -2327.1163     -12167.408    
     24750   181.91281      362.74921     -2334.6796      7.9242437     -2326.7554     -10820.96     
     24800   166.59759      332.20939     -2334.4951      7.2571023     -2327.238      -12674.444    
     24850   158.9789       317.01709     -2334.1677      6.9252271     -2327.2425     -13302.727    
     24900   163.20313      325.44056     -2334.459       7.1092374     -2327.3497     -11848.012    
     24950   158.89368      316.84717     -2334.3505      6.9215151     -2327.429      -10754.709    
     25000   162.39308      323.82526     -2334.3334      7.0739513     -2327.2595     -14981.801    
     25050   168.20387      335.41244     -2334.6385      7.3270729     -2327.3114     -12363.734    
     25100   150.42896      299.96781     -2334.0018      6.5527862     -2327.449      -14199.171    
     25150   162.33548      323.7104      -2334.6564      7.0714423     -2327.5849     -13142.001    
     25200   162.61802      324.27379     -2334.7577      7.0837495     -2327.6739     -12702.044    
     25250   163.86078      326.75196     -2334.8966      7.137885      -2327.7587     -13747.138    
     25300   161.7655       322.57382     -2334.9343      7.0466136     -2327.8876     -14613.006    
     25350   158.56321      316.18817     -2334.8245      6.9071193     -2327.9174     -15192.193    
     25400   150.54761      300.20441     -2334.2804      6.5579547     -2327.7225     -13604.235    
     25450   162.6808       324.399       -2334.5449      7.0864847     -2327.4584     -13557.402    
     25500   148.82452      296.76843     -2334.0326      6.4828958     -2327.5497     -16060.752    
     25550   160.47422      319.99888     -2334.4538      6.9903642     -2327.4635     -13002.012    
     25600   170.79423      340.57785     -2334.8245      7.4399111     -2327.3846     -12460.844    
     25650   160.37748      319.80597     -2333.7142      6.9861501     -2326.728      -15002.071    
     25700   182.06389      363.05048     -2334.768       7.9308248     -2326.8371     -11291.756    
     25750   164.33938      327.70635     -2333.6601      7.1587335     -2326.5014     -10806.288    
     25800   162.34899      323.73733     -2333.5723      7.0720305     -2326.5003     -13203.815    
     25850   200.41326      399.64064     -2334.3493      8.7301357     -2325.6192     -15171.07     
     25900   206.68754      412.15208     -2334.7246      9.0034475     -2325.7212     -12683.293    
     25950   170.52256      340.03612     -2333.4413      7.4280769     -2326.0132     -10726.192    
     26000   165.5895       330.19918     -2333.2143      7.2131894     -2326.0011     -14443.019    
     26050   178.84798      356.63769     -2334.2309      7.7907376     -2326.4402     -14592.164    
     26100   185.53541      369.97299     -2334.189       8.0820468     -2326.107      -12416.89     
     26150   169.8357       338.66645     -2333.3166      7.3981567     -2325.9184     -14100.254    
     26200   180.77336      360.47705     -2333.0945      7.8746084     -2325.2199     -13131.08     
     26250   147.3854       293.89869     -2331.6902      6.4202065     -2325.27       -10737.054    
     26300   186.9142       372.7224      -2333.4724      8.1421075     -2325.3303     -16078.805    
     26350   193.11495      385.0872      -2333.813       8.4122163     -2325.4007     -16141.437    
     26400   199.86587      398.54911     -2334.3252      8.7062911     -2325.6189     -16616.814    
     26450   183.3775       365.66992     -2333.3797      7.9880464     -2325.3917     -17674.112    
     26500   159.43142      317.91945     -2332.6935      6.9449391     -2325.7486     -15521.538    
     26550   165.085        329.19316     -2332.9966      7.1912129     -2325.8054     -20395.629    
     26600   180.66721      360.26538     -2333.6278      7.8699843     -2325.7578     -16584.44     
     26650   171.04308      341.07407     -2333.3019      7.4507509     -2325.8512     -19513.924    
     26700   170.91466      340.81798     -2333.3348      7.4451568     -2325.8896     -20171.101    
     26750   185.0526       369.01021     -2334.0323      8.0610149     -2325.9713     -16232.9      
     26800   179.10049      357.1412      -2333.8215      7.8017369     -2326.0198     -18946.849    
     26850   182.78216      364.48278     -2334.0551      7.9621133     -2326.093      -17459.174    
     26900   177.5405       354.03046     -2333.618       7.7337829     -2325.8842     -16730.292    
     26950   180.77331      360.47695     -2334.0575      7.8746062     -2326.1829     -19222.791    
     27000   183.30901      365.53335     -2334.173       7.9850631     -2326.188      -18086.802    
     27050   194.39061      387.63098     -2334.7695      8.467785      -2326.3017     -16228.843    
     27100   176.23625      351.42968     -2333.9821      7.6769689     -2326.3052     -16527.558    
     27150   165.13881      329.30046     -2333.5139      7.1935569     -2326.3204     -13797.92     
     27200   182.87724      364.67237     -2334.3747      7.966255      -2326.4085     -15867.598    
     27250   177.83925      354.6262      -2334.2192      7.7467967     -2326.4724     -18660.923    
     27300   173.98244      346.9354      -2334.0727      7.5787916     -2326.4939     -18174.113    
     27350   172.23442      343.44971     -2334.0767      7.5026466     -2326.5741     -15896.364    
     27400   174.94579      348.8564      -2334.262       7.6207556     -2326.6413     -14766.175    
     27450   159.40348      317.86375     -2333.6175      6.9437224     -2326.6738     -17975.344    
     27500   187.06204      373.0172      -2334.9084      8.1485475     -2326.7599     -17895.978    
     27550   176.29559      351.54801     -2334.4893      7.6795538     -2326.8098     -16483.87     
     27600   170.38027      339.75237     -2334.2868      7.4218784     -2326.8649     -19033.215    
     27650   166.16231      331.34141     -2334.1589      7.2381414     -2326.9208     -13882.328    
     27700   153.03014      305.15478     -2333.6222      6.6660954     -2326.9561     -18581.149    
     27750   161.73987      322.5227      -2334.0764      7.0454969     -2327.0309     -17508.349    
     27800   169.64217      338.28054     -2334.4733      7.3897263     -2327.0836     -17589.731    
     27850   166.153        331.32286     -2334.3804      7.237736      -2327.1427     -17682.293    
     27900   163.32095      325.6755      -2334.2986      7.1143696     -2327.1842     -16665.401    
     27950   173.84837      346.66806     -2334.7842      7.5729514     -2327.2113     -18758.235    
     28000   179.19314      357.32597     -2335.1108      7.8057731     -2327.305      -16686.502    
     28050   149.40123      297.91844     -2333.8609      6.5080176     -2327.3529     -16711.669    
     28100   167.4581       333.92532     -2334.7098      7.2945867     -2327.4152     -18886.316    
     28150   177.93418      354.81549     -2335.2475      7.7509317     -2327.4965     -14163.751    
     28200   169.77576      338.54692     -2334.9346      7.3955455     -2327.539      -14881.891    
     28250   149.65713      298.42872     -2333.9919      6.5191648     -2327.4727     -20072.063    
     28300   155.13091      309.34388     -2333.6676      6.757606      -2326.91       -16582.072    
     28350   172.2217       343.42434     -2335.0485      7.5020925     -2327.5464     -20015.206    
     28400   162.15546      323.35142     -2334.667       7.0636002     -2327.6034     -16998.541    
     28450   167.91355      334.83353     -2335.0764      7.3144266     -2327.7619     -19117.076    
     28500   175.80913      350.57797     -2335.4286      7.6583634     -2327.7702     -16323.542    
     28550   163.80085      326.63247     -2334.2074      7.1352747     -2327.0721     -10222.175    
     28600   171.15506      341.29737     -2334.5707      7.455629      -2327.115      -14113.704    
     28650   172.23965      343.46013     -2334.6667      7.5028744     -2327.1639     -15257.513    
     28700   177.42721      353.80455     -2334.9347      7.7288479     -2327.2059     -16357.384    
     28750   188.43935      375.76368     -2335.4836      8.2085442     -2327.275      -17462.637    
     28800   158.07747      315.21956     -2334.3412      6.8859601     -2327.4552     -19573.211    
     28850   166.12543      331.26786     -2335.087       7.2365346     -2327.8505     -17827.829    
     28900   151.21033      301.52593     -2333.9032      6.5868232     -2327.3164     -16196.655    
     28950   163.71208      326.45544     -2334.4914      7.1314075     -2327.36       -15534.263    
     29000   156.70646      312.48566     -2334.2843      6.8262382     -2327.4581     -15668.648    
     29050   166.03976      331.09704     -2335.299       7.2328031     -2328.0662     -17317.829    
     29100   163.48697      326.00657     -2335.252       7.1216019     -2328.1304     -18151.57     
     29150   157.61795      314.30326     -2335.0718      6.8659435     -2328.2058     -15688.861    
     29200   146.13015      291.39562     -2334.5663      6.3655271     -2328.2007     -17545.762    
     29250   137.91666      275.01724     -2334.3869      6.0077419     -2328.3791     -15693.032    
     29300   150.08384      299.27962     -2334.9634      6.5377526     -2328.4256     -18890.241    
     29350   147.68502      294.49616     -2334.7358      6.4332581     -2328.3026     -19602.36     
     29400   168.26891      335.54215     -2335.8013      7.3299063     -2328.4714     -17731.196    
     29450   153.52073      306.13304     -2335.2171      6.6874655     -2328.5297     -17446.26     
     29500   172.26375      343.50818     -2336.0818      7.503924      -2328.5779     -17674.239    
     29550   154.39548      307.87739     -2335.352       6.7255706     -2328.6264     -20611.914    
     29600   164.66449      328.35464     -2335.4111      7.1728955     -2328.2382     -17543.145    
     29650   166.94551      332.90318     -2335.1088      7.2722582     -2327.8366     -16185.913    
     29700   137.47938      274.14528     -2334.3188      5.9886939     -2328.3301     -16197.181    
     29750   155.46358      310.00726     -2335.3593      6.7720976     -2328.5872     -18237.593    
     29800   159.05844      317.17571     -2334.7275      6.9286922     -2327.7988     -15510.473    
     29850   157.77987      314.62612     -2334.8525      6.8729965     -2327.9795     -15160.515    
     29900   160.87513      320.79833     -2335.7136      7.0078282     -2328.7058     -17781.377    
     29950   148.95785      297.03429     -2335.106       6.4887035     -2328.6173     -18179.802    
     30000   157.7939       314.65411     -2335.7844      6.8736078     -2328.9108     -18894.351    
     30050   159.03876      317.13646     -2335.8664      6.9278348     -2328.9386     -17686.895    
     30100   148.84414      296.80754     -2335.4472      6.4837501     -2328.9634     -18569.329    
     30150   154.61516      308.31544     -2335.775       6.7351399     -2329.0399     -17107.524    
     30200   161.41548      321.87584     -2335.9886      7.0313662     -2328.9573     -16342.393    
     30250   159.3487       317.7545      -2336.0353      6.9413359     -2329.094      -18398.374    
     30300   144.75714      288.65773     -2335.4004      6.3057178     -2329.0947     -18901.634    
     30350   160.91446      320.87676     -2336.1377      7.0095414     -2329.1281     -21617.718    
     30400   161.87465      322.79146     -2335.9633      7.0513681     -2328.9119     -18738.445    
     30450   166.28803      331.59211     -2336.2166      7.243618      -2328.9729     -17966.119    
     30500   145.0852       289.31191     -2335.5795      6.3200084     -2329.2595     -20065.818    
     30550   148.00733      295.13888     -2335.7156      6.4472984     -2329.2683     -19624.622    
     30600   154.22272      307.53287     -2336.0694      6.7180447     -2329.3514     -18677.774    
     30650   178.22237      355.39017     -2335.8889      7.7634856     -2328.1255     -13303.074    
     30700   190.10335      379.08182     -2336.7132      8.281029      -2328.4321     -15183.497    
     30750   174.2188       347.40671     -2335.1925      7.5890873     -2327.6034     -13680.908    
     30800   144.10802      287.36334     -2333.9373      6.2774419     -2327.6599     -14801.734    
     30850   199.73556      398.28925     -2335.5488      8.7006146     -2326.8482     -15879.191    
     30900   159.71046      318.4759      -2333.4139      6.9570946     -2326.4568     -12367.335    
     30950   215.27969      429.28553     -2336.0252      9.3777273     -2326.6474     -12832.915    
     31000   184.64856      368.20453     -2334.8064      8.0434149     -2326.7629     -10590.969    
     31050   181.49197      361.91001     -2334.6506      7.9059114     -2326.7447     -10175.611    
     31100   168.46858      335.94031     -2334.1273      7.3386042     -2326.7887     -13937.227    
     31150   179.03698      357.01458     -2334.6397      7.7989708     -2326.8407     -14101.414    
     31200   171.26935      341.52528     -2334.2819      7.4606076     -2326.8213     -13551.049    
     31250   168.51705      336.03697     -2334.238       7.3407156     -2326.8973     -13948.289    
     31300   169.32176      337.64162     -2334.2591      7.3757692     -2326.8833     -11818.089    
[...]
    191700   165.58509      330.19038     -2341.9091      7.2129972     -2334.6961     -12949.508    
    191750   182.60676      364.133       -2341.8502      7.9544725     -2333.8958     -15522.63     
    191800   158.46558      315.99349     -2340.7392      6.9028665     -2333.8363     -12982.016    
    191850   177.41061      353.77146     -2341.5129      7.728125      -2333.7848     -15461.958    
    191900   170.46069      339.91273     -2341.407       7.4253815     -2333.9817     -15194.66     
    191950   153.90389      306.8971      -2340.6233      6.7041562     -2333.9192     -11829.11     
    192000   164.2542       327.53649     -2341.1271      7.1550229     -2333.9721     -14149.15     
    192050   171.89594      342.77474     -2341.5198      7.487902      -2334.0319     -13434.771    
    192100   170.10662      339.20669     -2341.6113      7.4099582     -2334.2013     -12854.89     
    192150   170.87094      340.73081     -2341.476       7.4432526     -2334.0327     -15591.704    
    192200   169.65169      338.29952     -2341.5613      7.3901411     -2334.1712     -14279.743    
    192250   158.10221      315.2689      -2341.0088      6.887038      -2334.1218     -11381.149    
    192300   162.44545      323.92969     -2341.022       7.0762325     -2333.9458     -12394.737    
    192350   169.79619      338.58768     -2341.7075      7.3964358     -2334.3111     -12814.21     
    192400   154.74656      308.57747     -2340.9372      6.7408639     -2334.1963     -12693.469    
    192450   165.40828      329.83782     -2342.4297      7.2052955     -2335.2244     -13455.035    
    192500   165.5055       330.03168     -2341.5843      7.2095302     -2334.3748     -13215.084    
    192550   145.68222      290.50241     -2341.6766      6.3460148     -2335.3306     -16061.276    
    192600   150.99423      301.095       -2342.0707      6.5774096     -2335.4933     -16021.019    
    192650   151.59429      302.29158     -2341.9502      6.6035489     -2335.3467     -16146.571    
    192700   170.36134      339.71463     -2341.688       7.4210541     -2334.267      -8793.2157    
    192750   151.993        303.08664     -2342.0569      6.620917      -2335.436      -15439.829    
    192800   166.75329      332.51987     -2341.7827      7.2638849     -2334.5188     -13631.775    
    192850   157.76863      314.60371     -2341.939       6.8725069     -2335.0665     -16288.746    
    192900   152.53865      304.1747      -2340.9804      6.6446855     -2334.3357     -12742.532    
    192950   149.15         297.41745     -2341.1457      6.4970736     -2334.6486     -11789.688    
    193000   156.32086      311.71673     -2341.2897      6.809441      -2334.4803     -11791.8      
    193050   140.29793      279.76569     -2341.5247      6.1114715     -2335.4133     -13217.175    
    193100   159.63379      318.32301     -2341.5515      6.9537548     -2334.5978     -15664.831    
    193150   154.36644      307.81948     -2341.3543      6.7243055     -2334.63       -13527.988    
    193200   162.26668      323.5732      -2342.1433      7.068445      -2335.0748     -15887.206    
    193250   151.70463      302.5116      -2341.072       6.6083551     -2334.4636     -14114.654    
    193300   157.25119      313.5719      -2341.8042      6.8499669     -2334.9542     -13190.619    
    193350   162.95361      324.943       -2341.8988      7.0983683     -2334.8004     -17351.763    
    193400   155.04036      309.16333     -2341.5229      6.7536619     -2334.7692     -12392.029    
    193450   156.29472      311.66462     -2341.426       6.8083025     -2334.6177     -14134.969    
    193500   159.22478      317.50741     -2341.5406      6.935938      -2334.6046     -11246.477    
    193550   159.41029      317.87732     -2341.6033      6.9440188     -2334.6592     -13925.644    
    193600   160.44829      319.94719     -2342.331       6.989235      -2335.3418     -14651.731    
    193650   165.16677      329.35622     -2342.0607      7.194775      -2334.8659     -13338.485    
    193700   159.08915      317.23695     -2342.8582      6.9300299     -2335.9282     -16623.371    
    193750   150.67394      300.45632     -2342.4953      6.5634577     -2335.9318     -14823.876    
    193800   150.88331      300.87381     -2342.5563      6.5725778     -2335.9837     -15124.39     
    193850   163.28628      325.60636     -2341.9914      7.1128594     -2334.8785     -11499.598    
    193900   158.99642      317.05204     -2342.9814      6.9259905     -2336.0554     -17958.526    
    193950   147.86728      294.85961     -2342.2654      6.4411977     -2335.8242     -14959.313    
    194000   158.11871      315.30182     -2342.931       6.887757      -2336.0432     -16326.983    
    194050   150.69212      300.49257     -2342.4523      6.5642495     -2335.888      -15183.263    
    194100   144.9994       289.14082     -2341.2006      6.316271      -2334.8843     -13643.868    
    194150   153.99536      307.0795      -2342.3113      6.7081407     -2335.6032     -13315.881    
    194200   167.66582      334.33954     -2342.2887      7.3036354     -2334.9851     -13129.218    
    194250   153.22917      305.55165     -2341.964       6.674765      -2335.2893     -13913.744    
    194300   155.54896      310.17752     -2341.9309      6.7758169     -2335.155      -15208.448    
    194350   152.87939      304.85416     -2341.9058      6.6595284     -2335.2463     -14172.338    
    194400   161.56782      322.17962     -2342.3084      7.0380024     -2335.2704     -13416.516    
    194450   137.72252      274.63012     -2341.3269      5.9992852     -2335.3276     -13660.589    
    194500   155.02268      309.12806     -2342.1257      6.7528915     -2335.3728     -14925.351    
    194550   153.84489      306.77945     -2342.1432      6.7015862     -2335.4416     -14879.733    
    194600   142.73227      284.61997     -2341.239       6.2175132     -2335.0215     -15133.094    
    194650   152.84895      304.79347     -2341.6316      6.6582025     -2334.9734     -11156.063    
    194700   140.45227      280.07346     -2341.5048      6.1181947     -2335.3866     -14405.156    
    194750   157.62629      314.31989     -2341.861       6.8663068     -2334.9947     -13228.408    
    194800   156.47222      312.01857     -2342.069       6.8160347     -2335.253      -12224.198    
    194850   158.86936      316.79866     -2342.4082      6.9204555     -2335.4878     -14953.561    
    194900   158.71709      316.49503     -2342.2564      6.9138226     -2335.3426     -13681.998    
    194950   143.2849       285.72196     -2342.2415      6.2415861     -2335.9999     -15358.723    
    195000   145.63535      290.40895     -2341.9747      6.3439732     -2335.6307     -15299.646    
    195050   161.14824      321.34293     -2342.1874      7.019725      -2335.1677     -15193.563    
    195100   137.25299      273.69384     -2341.0057      5.9788322     -2335.0269     -11758.395    
    195150   151.11495      301.33573     -2341.6328      6.5826683     -2335.0501     -12974.924    
    195200   149.23577      297.58849     -2341.6349      6.5008099     -2335.1341     -11645.774    
    195250   149.46783      298.05124     -2341.7508      6.5109187     -2335.2399     -14629.382    
    195300   140.27977      279.72949     -2341.337       6.1106808     -2335.2263     -11671.298    
    195350   154.92799      308.93924     -2342.2165      6.7487668     -2335.4678     -13550.397    
    195400   137.97397      275.13153     -2341.3431      6.0102385     -2335.3328     -12278.711    
    195450   151.40469      301.9135      -2342.0087      6.5952898     -2335.4135     -12039.803    
    195500   158.83111      316.72239     -2342.154       6.9187894     -2335.2352     -14931.129    
    195550   147.99355      295.1114      -2341.9097      6.4466981     -2335.463      -14569.895    
    195600   148.73398      296.58787     -2341.8756      6.4789515     -2335.3967     -11548.576    
    195650   148.65699      296.43435     -2341.9535      6.4755978     -2335.4779     -13166.134    
    195700   148.65876      296.43789     -2342.0324      6.4756752     -2335.5567     -12318.325    
    195750   147.75323      294.63219     -2342.1424      6.4362297     -2335.7062     -12197.855    
    195800   154.07158      307.23149     -2342.293       6.7114609     -2335.5815     -12047.185    
    195850   143.74682      286.64307     -2341.5569      6.2617077     -2335.2952     -10282.128    
    195900   151.01986      301.14612     -2342.1518      6.5785262     -2335.5733     -12228.709    
    195950   163.36634      325.76602     -2342.1458      7.1163471     -2335.0295     -12245.31     
    196000   151.0104       301.12725     -2341.9789      6.5781141     -2335.4007     -9292.6461    
    196050   139.05286      277.28292     -2341.4588      6.0572356     -2335.4015     -11527.639    
    196100   160.04599      319.14496     -2342.2416      6.9717103     -2335.2699     -11821.901    
    196150   137.94521      275.07417     -2341.3065      6.0089855     -2335.2975     -12014.862    
    196200   141.64851      282.45887     -2341.483       6.1703039     -2335.3127     -9623.862     
    196250   160.55072      320.15143     -2342.3647      6.9936965     -2335.371      -13664.114    
    196300   152.45576      304.00941     -2341.9867      6.6410748     -2335.3456     -11203.967    
    196350   149.3157       297.74788     -2341.8155      6.5042918     -2335.3112     -10885.481    
    196400   165.75576      330.53072     -2342.5566      7.2204319     -2335.3362     -13439.918    
    196450   152.90083      304.89691     -2341.805       6.6604623     -2335.1446     -12474.848    
    196500   151.64074      302.38421     -2341.879       6.6055723     -2335.2735     -13707.227    
    196550   139.20312      277.58256     -2341.2486      6.0637812     -2335.1848     -12682.832    
    196600   143.57119      286.29284     -2341.5201      6.2540569     -2335.2661     -11331.985    
    196650   140.14331      279.45737     -2341.2523      6.1047364     -2335.1475     -15558.819    
    196700   160.07758      319.20795     -2342.2094      6.9730864     -2335.2363     -13985.876    
    196750   145.19785      289.53655     -2341.3825      6.3249156     -2335.0576     -12524.501    
    196800   159.51026      318.07666     -2341.9479      6.9483734     -2334.9995     -11467.56     
    196850   155.74287      310.56418     -2341.5427      6.7842636     -2334.7585     -11081.951    
    196900   161.58512      322.21411     -2341.9229      7.0387558     -2334.8841     -12579.951    
    196950   159.12723      317.31288     -2341.8556      6.9316886     -2334.9239     -13143.672    
    197000   163.69129      326.41399     -2342.3564      7.1305019     -2335.2259     -12438.887    
    197050   156.50454      312.08301     -2342.143       6.8174423     -2335.3255     -11562.578    
    197100   152.84302      304.78164     -2341.7045      6.6579442     -2335.0465     -14239.938    
    197150   166.34725      331.71019     -2342.2207      7.2461973     -2334.9745     -9490.0104    
    197200   168.76016      336.52174     -2342.5216      7.3513055     -2335.1703     -11734.802    
    197250   149.86472      298.84266     -2341.7126      6.5282074     -2335.1844     -11254.17     
    197300   158.02779      315.12051     -2341.9097      6.8837964     -2335.0259     -12610.342    
    197350   137.68144      274.54821     -2341.1729      5.9974958     -2335.1754     -13565.8      
    197400   154.76655      308.61733     -2341.967       6.7417345     -2335.2253     -12452.5      
    197450   164.203        327.43438     -2342.2556      7.1527925     -2335.1028     -11005.617    
    197500   163.38833      325.80986     -2342.1497      7.1173049     -2335.0324     -14709.737    
    197550   170.74206      340.47382     -2342.4771      7.4376385     -2335.0394     -13208.559    
    197600   151.44727      301.9984      -2341.6367      6.5971443     -2335.0396     -10678.745    
    197650   161.92428      322.89043     -2342.1243      7.05353       -2335.0708     -11568.068    
    197700   149.60934      298.33342     -2341.5584      6.5170829     -2335.0413     -11145.53     
    197750   154.14504      307.37798     -2341.3771      6.7146612     -2334.6625     -10101.503    
    197800   158.31255      315.68833     -2341.5744      6.8962004     -2334.6782     -12143.178    
    197850   160.23231      319.5165      -2341.675       6.9798265     -2334.6952     -15428.891    
    197900   154.9444       308.97197     -2341.4169      6.7494817     -2334.6674     -11209.012    
    197950   153.93944      306.968       -2341.2728      6.705705      -2334.5671     -12122.683    
    198000   161.36183      321.76885     -2341.2506      7.0290291     -2334.2216     -14130.393    
    198050   152.39955      303.89732     -2340.8663      6.6386262     -2334.2277     -9790.4387    
    198100   163.75907      326.54914     -2341.3449      7.1334544     -2334.2114     -14732.559    
    198150   167.37656      333.76273     -2341.4746      7.291035      -2334.1836     -12162.241    
    198200   150.16739      299.44622     -2340.6963      6.541392      -2334.1549     -12237.181    
    198250   159.49604      318.04831     -2341.1925      6.9477541     -2334.2447     -11096.918    
    198300   161.96942      322.98043     -2341.2909      7.0554961     -2334.2354     -12787.354    
    198350   161.13731      321.32115     -2341.3226      7.0192491     -2334.3034     -14712.702    
    198400   161.0132       321.07365     -2341.2997      7.0138425     -2334.2858     -15230.206    
    198450   176.0517       351.06168     -2342.0352      7.66893       -2334.3663     -11697.818    
    198500   158.71739      316.49562     -2341.3867      6.9138356     -2334.4728     -10963.083    
    198550   184.01357      366.93831     -2342.2326      8.0157544     -2334.2169     -13188.618    
    198600   158.18216      315.42833     -2341.2063      6.8905207     -2334.3157     -15154.318    
    198650   172.25573      343.4922      -2341.6428      7.5035748     -2334.1392     -11502.957    
    198700   163.35562      325.74464     -2341.2848      7.11588       -2334.1689     -10150.535    
    198750   175.02927      349.02285     -2341.6245      7.6243919     -2334.0002     -11426.281    
    198800   160.1755       319.40322     -2341.0748      6.977352      -2334.0975     -16045.063    
    198850   152.37192      303.84223     -2340.7024      6.6374228     -2334.065      -11632.59     
    198900   161.09442      321.23561     -2341.1203      7.0173806     -2334.1029     -14971.265    
    198950   148.10338      295.33041     -2340.7021      6.4514823     -2334.2506     -11568.884    
    199000   159.25678      317.5712      -2341.0572      6.9373317     -2334.1199     -11250.065    
    199050   143.87324      286.89515     -2340.4085      6.2672145     -2334.1413     -10620.317    
    199100   170.14258      339.2784      -2341.9489      7.4115247     -2334.5374     -12291.23     
    199150   167.11694      333.24503     -2341.7243      7.2797258     -2334.4445     -12365.659    
    199200   143.74541      286.64026     -2340.6115      6.2616463     -2334.3499     -14843.902    
    199250   146.41138      291.95642     -2340.8612      6.3777777     -2334.4834     -13219.025    
    199300   165.17158      329.36581     -2341.5237      7.1949845     -2334.3287     -14467.76     
    199350   168.1769       335.35867     -2341.5689      7.3258983     -2334.243      -12782.479    
    199400   164.74678      328.51872     -2341.2971      7.1764798     -2334.1207     -10537.61     
    199450   163.20089      325.43609     -2340.7394      7.1091398     -2333.6303     -12398.423    
    199500   172.97603      344.92854     -2341.1825      7.5349517     -2333.6475     -13429.809    
    199550   150.35832      299.82694     -2340.37        6.5497088     -2333.8203     -13203.652    
    199600   171.57162      342.12803     -2341.231       7.4737746     -2333.7572     -13422.527    
    199650   177.52145      353.99247     -2341.496       7.732953      -2333.7631     -12968.232    
    199700   177.16466      353.28101     -2340.8543      7.7174111     -2333.1369     -11648.114    
    199750   176.99979      352.95225     -2340.7606      7.7102294     -2333.0503     -12558.047    
    199800   185.21664      369.33733     -2340.7575      8.0681609     -2332.6894     -10914.076    
    199850   166.79159      332.59624     -2339.913       7.2655531     -2332.6475     -9726.4881    
    199900   184.16038      367.23105     -2340.7146      8.0221493     -2332.6924     -11353.364    
    199950   172.61322      344.20505     -2340.5672      7.5191472     -2333.0481     -10740.43     
    200000   180.03403      359.00276     -2340.9316      7.8424026     -2333.0892     -13934.298    
colvars: Saving collective variables state to "out.colvars.state".
Loop time of 964.429 on 4 procs for 200000 steps with 338 atoms

Performance: 8.959 ns/day, 2.679 hours/ns, 207.377 timesteps/s, 70.093 katom-step/s
140.2% CPU use with 4 MPI tasks x 1 OpenMP threads

MPI task timing breakdown:
Section |  min time  |  avg time  |  max time  |%varavg| %total
---------------------------------------------------------------
Pair    | 798.52     | 854.8      | 922.89     | 154.5 | 88.63
Neigh   | 0.17158    | 2.4401     | 4.3016     |  98.0 |  0.25
Comm    | 11.049     | 64.035     | 97.077     | 400.0 |  6.64
Output  | 4.5429     | 5.4524     | 6.4474     |  37.0 |  0.57
Modify  | 18.087     | 34.903     | 82.839     | 468.7 |  3.62
Other   |            | 2.8        |            |       |  0.29

Nlocal:           84.5 ave         128 max           3 min
Histogram: 1 0 0 0 0 0 0 1 1 1
Nghost:        1158.25 ave        1683 max         637 min
Histogram: 1 0 0 0 1 1 0 0 0 1
Neighs:              0 ave           0 max           0 min
Histogram: 4 0 0 0 0 0 0 0 0 0
FullNghs:        15674 ave       27244 max         265 min
Histogram: 1 0 0 0 1 0 0 1 0 1

Total # of neighbors = 62696
Ave neighs/atom = 185.49112
Neighbor list builds = 4193
Dangerous builds = 0
write_data final.data
System init for write_data ...
Generated 0 of 6 mixed pair_coeff terms from geometric mixing rule

CITE-CITE-CITE-CITE-CITE-CITE-CITE-CITE-CITE-CITE-CITE-CITE-CITE

Your simulation uses code contributions which should be cited:

- Colvars module (Fiorin2013, plus other works listed for specific features)


% Colvars module:
% Colvars-LAMMPS interface:
% Metadynamics colvar bias implementation:
% Optimal rotation via flexible fitting:
% coordNum colvar component:

@article{Fiorin2013,
  author = {Fiorin, Giacomo and Klein, Michael L.{} and H\'enin, J\'er\^ome},
  title = {Using collective variables to drive molecular dynamics simulations},
  journal = {Mol. Phys.},
  year = {2013},
  volume = {111},
  number = {22-23},
  pages = {3345--3362},
  publisher = {Taylor & Francis},
  doi = {10.1080/00268976.2013.813594},
  url = {https://doi.org/10.1080/00268976.2013.813594}
}


% LAMMPS engine:

@article{Thompson2022,
  title = {{LAMMPS} - a flexible simulation tool for particle-based materials modeling at the atomic, meso, and continuum scales},
  author = {Thompson, Aidan P. and Aktulga, H. Metin and Berger, Richard and Bolintineanu, Dan S. and Brown, W. Michael and Crozier, Paul S. and {in't Veld}, Pieter J. and Kohlmeyer, Axel and Moore, Stan G. and Nguyen, Trung Dac and Shan, Ray and Stevens, Mark J. and Tranchida, Julien and Trott, Christian and Plimpton, Steven J.},
  journal = {Comp. Phys. Comm.},
  volume = {271},
  pages = {108171},
  year = {2022},
  doi = {10.1016/j.cpc.2021.108171},
  url = {https://doi.org/10.1016/j.cpc.2021.108171}
}

CITE-CITE-CITE-CITE-CITE-CITE-CITE-CITE-CITE-CITE-CITE-CITE-CITE

Total wall time: 0:16:29
