 # Fe168 O56 H113 Cl
  
         338  atoms
           4  atom types
 
      0.000000000000      11.328000000000  xlo xhi
      0.000000000000      12.015000000000  ylo yhi
      0.000000000000      32.000000000000  zlo zhi
 
Masses
 
            1   55.84500000             # Fe
            2   15.99900000             # O
            3   1.00800000              # H
            4   35.45000000             # Cl
 
Atoms # atomic
 
         1    1        0.000000000000       0.000000000000       0.000000000000
         2    1        0.000000000000       2.002540050000       2.002880000000
         3    1       11.328000000000       0.000000000000       4.005120000000
         4    1        0.000000000000       2.002540050000       6.008000000000
         5    1        0.000000000000       0.000000000000       8.009920000000
         6    1        0.000000000000       2.002540050000      10.011808000000
         7    1        0.000000000000       0.000000000000      12.015008000000
         8    1        1.416000000000       2.002540050000       0.000000000000
         9    1        1.416000000000       0.000000000000       2.002880000000
        10    1        1.416000000000       2.002540050000       4.005120000000
        11    1        1.416000000000       0.000000000000       6.008000000000
        12    1        1.416000000000       2.002540050000       8.009920000000
        13    1        1.416000000000       0.000000000000      10.011808000000
        14    1        1.416000000000       2.002540050000      12.015008000000
        15    1        2.832000000000       0.000000000000       0.000000000000
        16    1        2.832000000000       2.002540050000       2.002880000000
        17    1        2.832000000000       0.000000000000       4.005120000000
        18    1        2.832000000000       2.002540050000       6.008000000000
        19    1        2.832000000000       0.000000000000       8.009920000000
        20    1        2.832000000000       2.002540050000      10.011808000000
        21    1        2.832000000000       0.000000000000      12.015008000000
        22    1        4.248000000000       2.002540050000       0.000000000000
        23    1        4.248000000000       0.000000000000       2.002880000000
        24    1        4.248000000000       2.002540050000       4.005120000000
        25    1        4.248000000000       0.000000000000       6.008000000000
        26    1        4.248000000000       2.002540050000       8.009920000000
        27    1        4.248000000000       0.000000000000      10.011808000000
        28    1        4.248000000000       2.002540050000      12.015008000000
        29    1        5.664000000000       0.000000000000       0.000000000000
        30    1        5.664000000000       2.002540050000       2.002880000000
        31    1        5.664000000000       0.000000000000       4.005120000000
        32    1        5.664000000000       2.002540050000       6.008000000000
        33    1        5.664000000000       0.000000000000       8.009920000000
        34    1        5.664000000000       2.002540050000      10.011808000000
        35    1        5.664000000000       0.000000000000      12.015008000000
        36    1        7.080000000000       2.002540050000       0.000000000000
        37    1        7.080000000000       0.000000000000       2.002880000000
        38    1        7.080000000000       2.002540050000       4.005120000000
        39    1        7.080000000000       0.000000000000       6.008000000000
        40    1        7.080000000000       2.002540050000       8.009920000000
        41    1        7.080000000000       0.000000000000      10.011808000000
        42    1        7.080000000000       2.002540050000      12.015008000000
        43    1        8.496000000000       0.000000000000       0.000000000000
        44    1        8.496000000000       2.002540050000       2.002880000000
        45    1        8.496000000000       0.000000000000       4.005120000000
        46    1        8.496000000000       2.002540050000       6.008000000000
        47    1        8.496000000000       0.000000000000       8.009920000000
        48    1        8.496000000000       2.002540050000      10.011808000000
        49    1        8.496000000000       0.000000000000      12.015008000000
        50    1        9.912000000000       2.002540050000       0.000000000000
        51    1        9.912000000000       0.000000000000       2.002880000000
        52    1        9.912000000000       2.002540050000       4.005120000000
        53    1        9.912000000000       0.000000000000       6.008000000000
        54    1        9.912000000000       2.002540050000       8.009920000000
        55    1        9.912000000000       0.000000000000      10.011808000000
        56    1        9.912000000000       2.002540050000      12.015008000000
        57    1        0.000000000000       4.004959950000       0.000000000000
        58    1        0.000000000000       6.007500000000       2.002880000000
        59    1        0.000000000000       4.004959950000       4.005120000000
        60    1        0.000000000000       6.007500000000       6.008000000000
        61    1        0.000000000000       4.004959950000       8.009920000000
        62    1       11.328000000000       6.007500000000      10.011808000000
        63    1        0.000000000000       4.004959950000      12.015008000000
        64    1        1.416000000000       6.007500000000       0.000000000000
        65    1        1.416000000000       4.004959950000       2.002880000000
        66    1        1.416000000000       6.007500000000       4.005120000000
        67    1        1.416000000000       4.004959950000       6.008000000000
        68    1        1.416000000000       6.007500000000       8.009920000000
        69    1        1.416000000000       4.004959950000      10.011808000000
        70    1        1.416000000000       6.007500000000      12.015008000000
        71    1        2.832000000000       4.004959950000       0.000000000000
        72    1        2.832000000000       6.007500000000       2.002880000000
        73    1        2.832000000000       4.004959950000       4.005120000000
        74    1        2.832000000000       6.007500000000       6.008000000000
        75    1        2.832000000000       4.004959950000       8.009920000000
        76    1        2.832000000000       6.007500000000      10.011808000000
        77    1        2.832000000000       4.004959950000      12.015008000000
        78    1        4.248000000000       6.007500000000       0.000000000000
        79    1        4.248000000000       4.004959950000       2.002880000000
        80    1        4.248000000000       6.007500000000       4.005120000000
        81    1        4.248000000000       4.004959950000       6.008000000000
        82    1        4.248000000000       6.007500000000       8.009920000000
        83    1        4.248000000000       4.004959950000      10.011808000000
        84    1        4.248000000000       6.007500000000      12.015008000000
        85    1        5.664000000000       4.004959950000       0.000000000000
        86    1        5.664000000000       6.007500000000       2.002880000000
        87    1        5.664000000000       4.004959950000       4.005120000000
        88    1        5.664000000000       6.007500000000       6.008000000000
        89    1        5.664000000000       4.004959950000       8.009920000000
        90    1        5.664000000000       6.007500000000      10.011808000000
        91    1        5.664000000000       4.004959950000      12.015008000000
        92    1        7.080000000000       6.007500000000       0.000000000000
        93    1        7.080000000000       4.004959950000       2.002880000000
        94    1        7.080000000000       6.007500000000       4.005120000000
        95    1        7.080000000000       4.004959950000       6.008000000000
        96    1        7.080000000000       6.007500000000       8.009920000000
        97    1        7.080000000000       4.004959950000      10.011808000000
        98    1        7.080000000000       6.007500000000      12.015008000000
        99    1        8.496000000000       4.004959950000       0.000000000000
       100    1        8.496000000000       6.007500000000       2.002880000000
       101    1        8.496000000000       4.004959950000       4.005120000000
       102    1        8.496000000000       6.007500000000       6.008000000000
       103    1        8.496000000000       4.004959950000       8.009920000000
       104    1        8.496000000000       6.007500000000      10.011808000000
       105    1        8.496000000000       4.004959950000      12.015008000000
       106    1        9.912000000000       6.007500000000       0.000000000000
       107    1        9.912000000000       4.004959950000       2.002880000000
       108    1        9.912000000000       6.007500000000       4.005120000000
       109    1        9.912000000000       4.004959950000       6.008000000000
       110    1        9.912000000000       6.007500000000       8.009920000000
       111    1        9.912000000000       4.004959950000      10.011808000000
       112    1        9.912000000000       6.007500000000      12.015008000000
       113    1       11.328000000000       8.010040050000       0.000000000000
       114    1        0.000000000000      10.012495995000       2.002880000000
       115    1       11.328000000000       8.010040050000       4.005120000000
       116    1        0.000000000000      10.012495995000       6.008000000000
       117    1       11.328000000000       8.010040050000       8.009920000000
       118    1        0.000000000000      10.012495995000      10.011808000000
       119    1        0.000000000000       8.010040050000      12.015008000000
       120    1        1.416000000000      10.012495995000       0.000000000000
       121    1        1.416000000000       8.010040050000       2.002880000000
       122    1        1.416000000000      10.012495995000       4.005120000000
       123    1        1.416000000000       8.010040050000       6.008000000000
       124    1        1.416000000000      10.012495995000       8.009920000000
       125    1        1.416000000000       8.010040050000      10.011808000000
       126    1        1.416000000000      10.012495995000      12.015008000000
       127    1        2.832000000000       8.010040050000       0.000000000000
       128    1        2.832000000000      10.012495995000       2.002880000000
       129    1        2.832000000000       8.010040050000       4.005120000000
       130    1        2.832000000000      10.012495995000       6.008000000000
       131    1        2.832000000000       8.010040050000       8.009920000000
       132    1        2.832000000000      10.012495995000      10.011808000000
       133    1        2.832000000000       8.010040050000      12.015008000000
       134    1        4.248000000000      10.012495995000       0.000000000000
       135    1        4.248000000000       8.010040050000       2.002880000000
       136    1        4.248000000000      10.012495995000       4.005120000000
       137    1        4.248000000000       8.010040050000       6.008000000000
       138    1        4.248000000000      10.012495995000       8.009920000000
       139    1        4.248000000000       8.010040050000      10.011808000000
       140    1        4.248000000000      10.012495995000      12.015008000000
       141    1        5.664000000000       8.010040050000       0.000000000000
       142    1        5.664000000000      10.012495995000       2.002880000000
       143    1        5.664000000000       8.010040050000       4.005120000000
       144    1        5.664000000000      10.012495995000       6.008000000000
       145    1        5.664000000000       8.010040050000       8.009920000000
       146    1        5.664000000000      10.012495995000      10.011808000000
       147    1        5.664000000000       8.010040050000      12.015008000000
       148    1        7.080000000000      10.012495995000       0.000000000000
       149    1        7.080000000000       8.010040050000       2.002880000000
       150    1        7.080000000000      10.012495995000       4.005120000000
       151    1        7.080000000000       8.010040050000       6.008000000000
       152    1        7.080000000000      10.012495995000       8.009920000000
       153    1        7.080000000000       8.010040050000      10.011808000000
       154    1        7.080000000000      10.012495995000      12.015008000000
       155    1        8.496000000000       8.010040050000       0.000000000000
       156    1        8.496000000000      10.012495995000       2.002880000000
       157    1        8.496000000000       8.010040050000       4.005120000000
       158    1        8.496000000000      10.012495995000       6.008000000000
       159    1        8.496000000000       8.010040050000       8.009920000000
       160    1        8.496000000000      10.012495995000      10.011808000000
       161    1        8.496000000000       8.010040050000      12.015008000000
       162    1        9.912000000000      10.012495995000       0.000000000000
       163    1        9.912000000000       8.010040050000       2.002880000000
       164    1        9.912000000000      10.012495995000       4.005120000000
       165    1        9.912000000000       8.010040050000       6.008000000000
       166    1        9.912000000000      10.012495995000       8.009920000000
       167    1        9.912000000000       8.010040050000      10.011808000000
       168    1        9.912000000000      10.012495995000      12.015008000000
       169    2        8.656574400000       7.408713330000      21.386912000000
       170    2        1.930495104000       0.238209390000      18.368000000000
       171    2       10.540398144000       4.313445075000      17.195200000000
       172    2        8.829960768000      10.239603525000      22.263392000000
       173    2        1.034201088000       2.229263100000      23.345408000000
       174    2        0.548150592000       7.469497215000      19.999392000000
       175    2        8.130468096000       7.606960830000      18.762496000000
       176    2        3.353846976000       2.197110960000      17.249984000000
       177    2        3.247363776000       4.024207980000      20.145792000000
       178    2        2.889432960000       4.812464070000      15.286592000000
       179    2       10.053498048000       3.668804280000      20.409696000000
       180    2        5.206076928000       7.264365120000      18.843296000000
       181    2        6.639170880000       3.632494950000      16.575008000000
       182    2        2.148321216000       0.026420985000      15.508704000000
       183    2        1.390432704000       6.437793195000      14.072000000000
       184    2        2.097005376000      10.940594670000      20.809408000000
       185    2        8.493043392000       2.313644445000      14.963200000000
       186    2        5.058518400000       8.059553865000      16.384288000000
       187    2       10.576194624000       5.754151710000      22.011200000000
       188    2        8.673033984000       7.703345160000      14.073696000000
       189    2       10.825399296000       9.918394515000      20.350688000000
       190    2        9.835003584000       9.425142720000      24.564992000000
       191    2       10.307403840000       5.539395600000      14.936704000000
       192    2        0.238533696000       7.332285915000      17.354816000000
       193    2        2.841560832000       1.715021100000      21.458496000000
       194    2        6.016799232000      11.258499555000      18.349600000000
       195    2        8.674200768000       4.626483885000      23.570592000000
       196    2        2.618750400000       8.809205760000      15.065408000000
       197    2        2.674223616000       4.949579250000      22.862816000000
       198    2        1.756349760000       2.525384790000      14.574400000000
       199    2        6.341471040000      10.303295040000      21.236608000000
       200    2        5.835188736000       0.933205050000      21.657792000000
       201    2        0.795995904000       6.762078045000      23.704512000000
       202    2        4.676912064000       6.980402610000      22.705888000000
       203    2        5.814583104000       4.669605720000      19.600896000000
       204    2        5.509769280000       5.601621285000      15.186496000000
       205    2        4.852484736000       2.046899430000      15.117792000000
       206    2        5.693679360000       1.851139035000      18.822400000000
       207    2        7.069396992000       9.222605865000      15.301984000000
       208    2        3.464147712000       8.252058195000      20.545600000000
       209    2        8.350673088000       4.761268155000      18.620096000000
       210    2        8.529621504000       6.882828795000      25.294304000000
       211    2        0.681764352000       9.834734070000      16.614688000000
       212    2        8.310005568000      10.049394060000      17.458496000000
       213    2        0.033995328000      11.300996610000      14.144608000000
       214    2        6.783319680000       5.641955640000      21.994208000000
       215    2        4.508000256000      11.268700290000      15.242496000000
       216    2        8.476719744000      11.773894995000      14.277696000000
       217    2       10.892800896000       1.145341890000      19.270816000000
       218    2       10.898997312000       1.996015905000      16.099808000000
       219    2       10.423402560000      11.753805915000      17.041312000000
       220    2        2.091930432000       4.580754795000      17.796896000000
       221    2       11.176000896000       8.575441920000      14.000896000000
       222    2        8.364855744000       2.339044155000      22.154688000000
       223    2       10.493794752000       0.431254395000      22.572384000000
       224    2        3.613937856000      10.330400880000      17.826304000000
       225    3        7.228963200000       4.603787550000      12.992608000000
       226    3        8.483142720000       8.336163195000      21.729792000000
       227    3        2.289320832000       4.627096650000      18.757984000000
       228    3       10.675495872000       0.654649290000      18.444896000000
       229    3        7.392607488000       6.310794645000      21.640192000000
       230    3        0.466996800000       2.068730685000      15.654208000000
       231    3        8.520955584000       3.129619140000      22.680992000000
       232    3        4.940152128000      10.659900240000      15.849504000000
       233    3        9.581120448000      11.296298745000      17.185408000000
       234    3        1.058635584000       0.572971320000      18.692512000000
       235    3        2.406384384000       1.029216915000      18.084096000000
       236    3       10.878403008000       3.425404410000      16.912704000000
       237    3       10.444699200000       4.883989365000      16.304992000000
       238    3        8.997943680000       9.968965650000      23.205088000000
       239    3        7.776014976000      10.255595490000      22.109600000000
       240    3        0.753776448000       3.176009055000      23.208288000000
       241    3        0.111920640000       1.737128700000      23.378912000000
       242    3        0.193085760000       6.788174625000      20.562592000000
       243    3        0.086081472000       8.352864045000      20.153696000000
       244    3        8.312984832000       6.616155870000      18.551008000000
       245    3        7.162128000000       7.690501125000      18.789504000000
       246    3        2.904114048000       3.011535720000      17.458912000000
       247    3        3.733742784000       2.232134685000      16.255616000000
       248    3        2.989323264000       4.478567220000      21.005312000000
       249    3        3.165451008000       3.053516130000      20.512512000000
       250    3        3.866994048000       4.996557900000      15.377216000000
       251    3        2.543634432000       4.887185355000      16.252416000000
       252    3        9.294420096000       3.185825310000      20.832288000000
       253    3        9.458188992000       4.189822740000      19.772000000000
       254    3        5.518944960000       6.314915790000      19.104896000000
       255    3        4.373004480000       7.544434770000      19.321088000000
       256    3        7.392573504000       3.248675775000      16.042112000000
       257    3        5.982430080000       2.975466690000      16.447616000000
       258    3        1.839610560000       0.096997095000      16.451104000000
       259    3        2.944543680000      11.442100770000      15.430784000000
       260    3        1.624265280000       7.331324715000      14.457792000000
       261    3        2.127092544000       5.800974165000      14.491904000000
       262    3        2.181999360000      11.010197565000      19.874400000000
       263    3        2.296933248000      11.860102620000      21.123104000000
       264    3        8.607105024000       2.734601985000      14.017216000000
       265    3        9.409705152000       2.307024180000      15.360608000000
       266    3        4.981216128000       7.178541975000      15.879904000000
       267    3        5.109732288000       7.698310875000      17.412608000000
       268    3       10.404405504000       5.013150615000      21.308192000000
       269    3        9.929025984000       6.514460910000      21.788288000000
       270    3        8.633453952000       6.734203245000      14.119904000000
       271    3        7.965056640000       8.196236505000      14.559008000000
       272    3        0.259116672000      10.513401345000      20.507392000000
       273    3       10.225604352000       9.973747620000      21.111008000000
       274    3        9.602439744000       8.529088050000      24.845888000000
       275    3       10.753602432000       9.375905250000      24.294304000000
       276    3       10.280499840000       4.846526595000      14.235584000000
       277    3       11.170200960000       6.047353755000      14.672896000000
       278    3        0.386624640000       7.416162630000      18.408416000000
       279    3       10.703804544000       6.841485180000      17.246688000000
       280    3        3.680444544000       1.382602095000      21.734496000000
       281    3        2.287768896000       1.972706805000      22.203616000000
       282    3        5.866352064000       0.212256990000      18.350304000000
       283    3        5.067569472000      10.887296130000      18.348288000000
       284    3        9.538504512000       4.703596155000      23.135616000000
       285    3        7.953082944000       5.076205335000      22.980192000000
       286    3        3.486565824000       8.617854870000      15.564096000000
       287    3        2.793915264000       9.301484340000      14.190688000000
       288    3        2.076071232000       5.568820335000      23.325312000000
       289    3        3.075246144000       4.312868355000      23.501888000000
       290    3        2.424407232000       1.869437880000      14.875296000000
       291    3        2.128565184000       3.500293905000      14.669696000000
       292    3        6.046376640000      11.141905995000      21.649216000000
       293    3        6.481994880000      10.464596415000      20.247008000000
       294    3        5.865219264000       1.216530765000      20.707488000000
       295    3        6.593994816000       1.374095475000      22.099712000000
       296    3        0.456008640000       6.583114620000      24.596096000000
       297    3        0.129116544000       6.422065560000      23.072992000000
       298    3        4.012162368000       6.236457840000      22.792896000000
       299    3        4.382701248000       7.445106765000      21.919296000000
       300    3        4.876896576000       4.459955985000      19.836992000000
       301    3        6.351677568000       4.807321650000      20.359008000000
       302    3        5.894445504000       5.703027885000      14.301792000000
       303    3        6.060344064000       5.001375915000      15.778592000000
       304    3        4.836999360000       2.524784040000      14.257600000000
       305    3        4.695286080000       1.054436400000      14.918496000000
       306    3        6.251436096000       2.723596245000      18.649312000000
       307    3        4.825694016000       2.045721960000      18.385984000000
       308    3        6.282067008000       8.665230015000      15.662592000000
       309    3        7.542035136000       9.516949335000      16.117984000000
       310    3        2.485850304000       8.110905975000      20.309792000000
       311    3        3.412843200000       9.221428395000      20.835808000000
       312    3        9.145490880000       4.525317585000      18.026400000000
       313    3        7.633950528000       4.252589100000      18.173312000000
       314    3        7.616244864000       7.117746075000      25.187488000000
       315    3        8.633771136000       6.020043660000      24.784096000000
       316    3        1.502670528000       9.603949950000      16.085408000000
       317    3        0.400660032000       8.905530015000      16.954400000000
       318    3        7.563093888000      10.569102885000      17.844288000000
       319    3        8.588708352000       9.229454415000      17.975904000000
       320    3       10.544600832000      11.573400690000      14.613216000000
       321    3        5.909285184000       6.156678240000      22.180096000000
       322    3        4.726743936000      10.861800300000      14.329504000000
       323    3        7.621727616000      11.309503230000      14.584416000000
       324    3        8.347218048000       0.653147415000      14.647488000000
       325    3       11.270623680000       9.518703525000      14.351904000000
       326    3       10.643403648000       2.080253070000      19.172288000000
       327    3       10.740201408000       1.092139470000      16.475200000000
       328    3        0.936032640000      11.647100700000      14.585888000000
       329    3       11.123903424000      10.973996370000      16.932800000000
       330    3        1.135960512000       4.631938695000      17.698784000000
       331    3       10.237396800000       8.326082610000      14.282208000000
       332    3        9.071915520000       1.743400530000      22.368896000000
       333    3        9.960042048000      11.634797340000      22.502400000000
       334    3       10.660803456000       0.643439295000      21.572192000000
       335    3        8.457711360000       7.523012025000      20.385504000000
       336    3        3.140574720000       9.512551845000      17.621504000000
       337    3        2.909778048000      11.047396005000      17.933312000000
       338    4        4.086496704000      11.156696460000      25.774784000000
