LAMMPS (2 Aug 2023)
OMP_NUM_THREADS environment is not set. Defaulting to 1 thread. (src/comm.cpp:98)
  using 1 OpenMP thread(s) per MPI task
Loaded 1 plugins from /work/home/baoergen22b/apprepo/deepmd/v2.2.9-dtk23.10/app/lib/deepmd_lmp
Reading data file ...
  orthogonal box = (0 0 0) to (11.328 12.015 32)
  1 by 1 by 4 MPI processor grid
  reading atoms ...
  338 atoms
  read_data CPU = 0.037 seconds
Summary of lammps deepmd module ...
  >>> Info of deepmd-kit:
  installed to:       /work/home/wys974137909/shangcheng/deepmd-kit/20240715/deepmd-kit_v2.2.9/install
  source:             v2.2.9
  source branch:      HEAD
  source commit:      be43748
  source commit at:   2024-02-04 13:44:12 +0800
  support model ver.: 1.1 
  build variant:      rocm
  build with tf inc:  /work/home/wys974137909/shangcheng/miniconda3/envs/deepmd-kit-v2.2.9/lib/python3.8/site-packages/tensorflow/include;/work/home/wys974137909/shangcheng/miniconda3/envs/deepmd-kit-v2.2.9/lib/python3.8/site-packages/tensorflow/include
  build with tf lib:  /work/home/wys974137909/shangcheng/miniconda3/envs/deepmd-kit-v2.2.9/lib/python3.8/site-packages/tensorflow/lib/libtensorflow_cc.so
  set tf intra_op_parallelism_threads: 0
  set tf inter_op_parallelism_threads: 0
  >>> Info of lammps module:
  use deepmd-kit at:  /work/home/wys974137909/shangcheng/deepmd-kit/20240715/deepmd-kit_v2.2.9/install
  source:             v2.2.9
  source branch:      HEAD
  source commit:      be43748
  source commit at:   2024-02-04 13:44:12 +0800
  build float prec:   double
  build with tf inc:  /work/home/wys974137909/shangcheng/miniconda3/envs/deepmd-kit-v2.2.9/lib/python3.8/site-packages/tensorflow/include;/work/home/wys974137909/shangcheng/miniconda3/envs/deepmd-kit-v2.2.9/lib/python3.8/site-packages/tensorflow/include
  build with tf lib:  /work/home/wys974137909/shangcheng/miniconda3/envs/deepmd-kit-v2.2.9/lib/python3.8/site-packages/tensorflow/lib/libtensorflow_cc.so
INVALID_ARGUMENT: Tensor spin_attr/ntypes_spin:0, specified in either feed_devices or fetch_devices was not found in the Graph
INVALID_ARGUMENT: Tensor spin_attr/ntypes_spin:0, specified in either feed_devices or fetch_devices was not found in the Graph
INVALID_ARGUMENT: Tensor spin_attr/ntypes_spin:0, specified in either feed_devices or fetch_devices was not found in the Graph
INVALID_ARGUMENT: Tensor spin_attr/ntypes_spin:0, specified in either feed_devices or fetch_devices was not found in the Graph
  >>> Info of model(s):
  using   1 model(s): graph-compress.pb 
  rcut in model:      6
  ntypes in model:    4
168 atoms in group fixed
170 atoms in group mobile

CITE-CITE-CITE-CITE-CITE-CITE-CITE-CITE-CITE-CITE-CITE-CITE-CITE

Your simulation uses code contributions which should be cited:
- GPU package (short-range, long-range and three-body potentials): doi:10.1016/j.cpc.2010.12.021, doi:10.1016/j.cpc.2011.10.012, doi:10.1016/j.cpc.2013.08.002, doi:10.1016/j.commatsci.2014.10.068, doi:10.1016/j.cpc.2016.10.020, doi:10.3233/APC200086
- USER-DEEPMD package:
The log file lists these citations in BibTeX format.

CITE-CITE-CITE-CITE-CITE-CITE-CITE-CITE-CITE-CITE-CITE-CITE-CITE

Generated 0 of 6 mixed pair_coeff terms from geometric mixing rule
Neighbor list info ...
  update: every = 1 steps, delay = 0 steps, check = yes
  max neighbors/atom: 2000, page size: 100000
  master list distance cutoff = 8
  ghost atom cutoff = 8
  binsize = 4, bins = 3 4 8
  1 neighbor lists, perpetual/occasional/extra = 1 0 0
  (1) pair deepmd, perpetual
      attributes: full, newton on
      pair build: full/bin/atomonly
      stencil: full/bin/3d
      bin: standard
Setting up Verlet run ...
  Unit style    : metal
  Current step  : 0
  Time step     : 0.0005
colvars: Creating proxy instance
colvars: ----------------------------------------------------------------------
colvars: Initializing the collective variables module, version 2023-05-01.
colvars: Please cite Fiorin et al, Mol Phys 2013:
colvars:   https://doi.org/10.1080/00268976.2013.813594
colvars: as well as all other papers listed below for individual features used.
colvars: This version was built with the C++11 standard or higher.
colvars: Using LAMMPS interface, version "2023-04-12".
colvars: ----------------------------------------------------------------------
colvars: Reading new configuration from file "pmf.in":
colvars: # units = "" [default]
colvars: # smp = on [default]
colvars: # colvarsTrajFrequency = 100 [default]
colvars: # colvarsRestartFrequency = 0 [default]
colvars: # scriptedColvarForces = off [default]
colvars: # scriptingAfterBiases = off [default]
colvars: ----------------------------------------------------------------------
colvars:   Initializing a new collective variable.
colvars:   # name = "d"
colvars:   Initializing a new "distanceZ" component.
colvars:     # name = "" [default]
colvars:     # componentCoeff = 1 [default]
colvars:     # componentExp = 1 [default]
colvars:     # period = 0 [default]
colvars:     # wrapAround = 0 [default]
colvars:     # forceNoPBC = off [default]
colvars:     # scalable = on [default]
colvars:       Initializing atom group "main".
colvars:       # name = "" [default]
colvars:       # centerToOrigin = off [default]
colvars:       # centerToReference = off [default]
colvars:       # rotateToReference = off [default]
colvars:       # atomsOfGroup = "" [default]
colvars:       # indexGroup = "" [default]
colvars:       # psfSegID =  [default]
colvars:       # atomsFile = "" [default]
colvars:       # dummyAtom = ( 0 , 0 , 0 ) [default]
colvars:       # enableFitGradients = on [default]
colvars:       # printAtomIDs = off [default]
colvars:       Atom group "main" defined with 1 atoms requested.
colvars:       Initializing atom group "ref".
colvars:       # name = "" [default]
colvars:       # centerToOrigin = off [default]
colvars:       # centerToReference = off [default]
colvars:       # rotateToReference = off [default]
colvars:       # atomsOfGroup = "" [default]
colvars:       # indexGroup = "" [default]
colvars:       # psfSegID =  [default]
colvars:       # atomsFile = "" [default]
colvars:       # dummyAtom = ( 0 , 0 , 0 ) [default]
colvars:       # enableFitGradients = on [default]
colvars:       # printAtomIDs = off [default]
colvars:       Atom group "ref" defined with 23 atoms requested.
colvars:     # axis = ( 0 , 0 , 1 ) [default]
colvars:     # oneSiteSystemForce = off [default]
colvars:     # oneSiteTotalForce = off [default]
colvars:   All components initialized.
colvars:   # timeStepFactor = 1 [default]
colvars:   # width = 0.05
colvars:   # lowerBoundary = 0.8
colvars:   # upperBoundary = 6.5
colvars:   # hardLowerBoundary = on
colvars:   # hardUpperBoundary = off [default]
colvars:   # expandBoundaries = off [default]
colvars:   # extendedLagrangian = off [default]
colvars:   # outputValue = on [default]
colvars:   # outputVelocity = off [default]
colvars:   # outputTotalForce = on
colvars:   # outputAppliedForce = on
colvars:   # subtractAppliedForce = off [default]
colvars:   # runAve = off [default]
colvars:   # corrFunc = off [default]
colvars: ----------------------------------------------------------------------
colvars: Collective variables initialized, 1 in total.
colvars: ----------------------------------------------------------------------
colvars:   Initializing a new "metadynamics" instance.
colvars:   # name = "metadynamics1" [default]
colvars:   # colvars = { d }
colvars:   # stepZeroData = off [default]
colvars:   # outputEnergy = off [default]
colvars:   # outputFreq = 0 [default]
colvars:   # timeStepFactor = 1 [default]
colvars:   # writeTISamples = on
colvars:   # writeTIPMF = on
colvars:   # hillWeight = 0.1
colvars:   # newHillFrequency = 300
colvars:   # gaussianSigmas =  [default]
colvars:   # hillWidth = 1
colvars:   Half-widths of the Gaussian hills (sigma's):
colvars:   d: 0.025
colvars:   # multipleReplicas = off [default]
colvars:   # useGrids = on [default]
colvars:   # gridsUpdateFrequency = 300 [default]
colvars:   # rebinGrids = off [default]
colvars:   # writeFreeEnergyFile = on [default]
colvars:   # keepHills = off [default]
colvars:   # keepFreeEnergyFiles = off [default]
colvars:   # writeHillsTrajectory = off [default]
colvars:   # wellTempered = off [default]
colvars:   # biasTemperature = 800
colvars:   # ebMeta = off [default]
colvars: ----------------------------------------------------------------------
colvars: Collective variables biases initialized, 1 in total.
colvars: ----------------------------------------------------------------------
colvars: Collective variables module (re)initialized.
colvars: ----------------------------------------------------------------------
colvars: Re-initialized atom group for variable "d":0/0. 1 atoms: total mass = 1.008, total charge = 0.
colvars: Re-initialized atom group for variable "d":0/1. 23 atoms: total mass = 1284.44, total charge = -2.00358e+260.
colvars: The restart output state file will be "rest.colvars.state".
colvars: The final output state file will be "out.colvars.state".
Per MPI rank memory allocation (min/avg/max) = 3.129 | 3.153 | 3.169 Mbytes
   Step          Temp         c_mTemp         PotEng         KinEng         TotEng         Press     
         0   149.51736      298.15        -2331.8522      6.5130762     -2325.3391     -18112.572    
        50   141.4112       281.98565     -2331.4961      6.1599665     -2325.3362     -17618.644    
       100   147.6388       294.40399     -2331.7733      6.4312447     -2325.342      -15114.222    
       150   147.20998      293.54889     -2331.7498      6.4125651     -2325.3372     -15322.234    
       200   158.84992      316.75991     -2332.2612      6.9196089     -2325.3416     -20212.131    
       250   150.57158      300.25221     -2331.8984      6.5589988     -2325.3394     -18041.706    
       300   157.78459      314.63555     -2332.206       6.8732024     -2325.3328     -18873.454    
       350   150.36043      299.83116     -2331.8878      6.549801      -2325.338      -17216.564    
       400   151.6796       302.46168     -2331.9353      6.6072647     -2325.328      -18231.509    
       450   148.8732       296.8655      -2331.7143      6.4850163     -2325.2293     -17779.796    
       500   137.41853      274.02393     -2331.2245      5.986043      -2325.2384     -17759.503    
       550   144.15697      287.46094     -2331.4966      6.2795741     -2325.217      -16636.275    
       600   156.49054      312.0551      -2332.0064      6.8168327     -2325.1896     -18748.349    
       650   171.03347      341.0549      -2332.5097      7.4503322     -2325.0594     -16079.482    
       700   142.14181      283.44254     -2331.2449      6.1917922     -2325.0531     -12918.336    
       750   153.71205      306.51455     -2331.769       6.6957996     -2325.0732     -19857.156    
       800   151.59936      302.30169     -2331.6864      6.6037697     -2325.0827     -16088.358    
       850   143.37649      285.9046      -2331.3595      6.2455758     -2325.1139     -18361.738    
       900   134.35074      267.9065      -2330.8996      5.852408      -2325.0472     -16396.982    
       950   151.89293      302.88708     -2331.7068      6.6165575     -2325.0902     -18408.744    
      1000   157.52658      314.12105     -2331.9249      6.8619631     -2325.063      -16208.77     
      1050   161.65814      322.35971     -2332.0835      7.0419365     -2325.0416     -19634.883    
      1100   164.38718      327.80166     -2332.1586      7.1608155     -2324.9978     -15835.865    
      1150   155.75866      310.59566     -2331.7908      6.7849513     -2325.0058     -17019.661    
      1200   150.38465      299.87946     -2331.5512      6.5508561     -2325.0003     -14830.149    
      1250   155.36894      309.81854     -2331.8579      6.7679751     -2325.0899     -16369.176    
      1300   147.55409      294.23508     -2331.4982      6.4275548     -2325.0707     -16071.139    
      1350   136.86472      272.91959     -2330.9616      5.9619189     -2324.9997     -17193.222    
      1400   142.15309      283.46505     -2331.1739      6.1922839     -2324.9816     -15285.179    
      1450   156.7922       312.65663     -2331.8007      6.8299731     -2324.9708     -13816.926    
      1500   158.86576      316.79149     -2331.7209      6.9202988     -2324.8006     -18095.494    
      1550   162.4142       323.86737     -2331.8379      7.0748712     -2324.7631     -14914.397    
      1600   155.40038      309.88124     -2331.5958      6.7693446     -2324.8265     -18311.067    
      1650   156.77458      312.62151     -2331.5291      6.8292057     -2324.6999     -15737.878    
      1700   158.80333      316.667       -2331.5221      6.9175794     -2324.6045     -15400.199    
      1750   153.92726      306.94372     -2331.2395      6.7051746     -2324.5343     -14362.308    
      1800   168.92189      336.84424     -2331.7437      7.3583505     -2324.3853     -17890.29     
      1850   174.60573      348.1783      -2331.8816      7.6059426     -2324.2757     -15357.936    
      1900   179.99387      358.92269     -2332.0201      7.8406534     -2324.1794     -17036.175    
      1950   174.37251      347.71323     -2331.8129      7.5957833     -2324.2171     -14636.153    
      2000   184.60115      368.10998     -2332.2052      8.0413495     -2324.1638     -15715.436    
      2050   156.40986      311.89423     -2331.0973      6.8133183     -2324.284      -18555.503    
      2100   174.23946      347.44792     -2331.675       7.5899875     -2324.0851     -16527.932    
      2150   157.00852      313.08799     -2330.4789      6.8393961     -2323.6395     -17614.435    
      2200   170.26835      339.52919     -2331.0999      7.4170031     -2323.6829     -19596.784    
      2250   179.79168      358.51951     -2331.5474      7.8318459     -2323.7156     -14052.765    
      2300   168.23606      335.47664     -2331.1041      7.3284753     -2323.7756     -18017.722    
      2350   155.06874      309.21991     -2330.4559      6.754898      -2323.701      -16676.012    
      2400   175.43936      349.84061     -2331.3422      7.6422558     -2323.6999     -18817.79     
      2450   166.88878      332.79005     -2331.0149      7.2697867     -2323.7451     -15940.348    
      2500   175.81334      350.58636     -2331.4198      7.6585465     -2323.7612     -19156.433    
      2550   164.35518      327.73785     -2331.1039      7.1594216     -2323.9445     -17988.419    
      2600   158.73351      316.52776     -2330.845       6.9145377     -2323.9305     -15697.655    
      2650   163.34246      325.7184      -2331.0772      7.1153068     -2323.9619     -19579.564    
      2700   164.60741      328.24081     -2331.3154      7.1704087     -2324.145      -19114.716    
      2750   172.2783       343.53721     -2331.7232      7.5045581     -2324.2186     -20212.977    
      2800   156.73816      312.54887     -2330.9327      6.8276189     -2324.1051     -17632.014    
      2850   148.29796      295.71843     -2330.6369      6.4599585     -2324.1769     -16950.687    
      2900   163.98106      326.99181     -2331.4131      7.1431245     -2324.27       -20642.533    
      2950   159.67616      318.4075      -2331.278       6.9556005     -2324.3224     -14881.898    
      3000   140.00162      279.17482     -2330.4291      6.0985641     -2324.3306     -17720.974    
      3050   172.94677      344.8702      -2331.6689      7.5336772     -2324.1352     -18823.509    
      3100   167.86267      334.73207     -2331.3801      7.3122102     -2324.0679     -17910.424    
      3150   151.15625      301.41808     -2330.7137      6.5844672     -2324.1293     -19357.161    
      3200   164.6056       328.23721     -2331.3254      7.1703301     -2324.155      -15703.728    
      3250   152.76865      304.63334     -2330.8015      6.6547044     -2324.1468     -18925.112    
      3300   154.0283       307.14518     -2330.9543      6.7095756     -2324.2448     -16808.693    
      3350   173.321        345.61643     -2331.5367      7.5499787     -2323.9867     -17001.403    
      3400   172.00236      342.98695     -2331.4383      7.4925378     -2323.9457     -15174.205    
      3450   157.81073      314.68766     -2330.755       6.8743408     -2323.8807     -19781.674    
      3500   154.56816      308.22171     -2330.6895      6.7330923     -2323.9564     -16380.19     
      3550   166.89906      332.81055     -2331.2133      7.2702346     -2323.9431     -13737.407    
      3600   159.69859      318.45222     -2330.9039      6.9565774     -2323.9473     -17046.467    
      3650   175.8202       350.60004     -2331.461       7.6588455     -2323.8022     -16662.837    
      3700   171.06198      341.11176     -2331.2215      7.4515743     -2323.7699     -13610.641    
      3750   171.6235       342.23147     -2331.3529      7.4760344     -2323.8769     -17045.984    
      3800   166.79801      332.60905     -2331.2601      7.265833      -2323.9942     -14126.821    
      3850   165.80671      330.63231     -2331.083       7.222651      -2323.8603     -16043.193    
      3900   178.45803      355.8601      -2331.4735      7.7737513     -2323.6998     -16534.771    
      3950   166.30593      331.6278      -2330.8133      7.2443976     -2323.5689     -14197.328    
      4000   168.49479      335.99258     -2331.02        7.3397459     -2323.6802     -14423.404    
      4050   172.08282      343.14739     -2331.1463      7.4960426     -2323.6502     -16455.887    
      4100   165.2965       329.61492     -2331.0203      7.2004262     -2323.8199     -16043.924    
      4150   159.51481      318.08574     -2331.0718      6.9485717     -2324.1233     -14599.076    
      4200   164.394        327.81526     -2330.9889      7.1611127     -2323.8278     -19476.809    
      4250   177.23286      353.41701     -2331.469       7.720382      -2323.7486     -18802.466    
      4300   166.36785      331.75127     -2331.0051      7.2470948     -2323.758      -14998.73     
      4350   165.98055      330.97897     -2331.0635      7.2302239     -2323.8333     -15717.544    
      4400   178.02029      354.9872      -2331.1052      7.7546827     -2323.3506     -13064.083    
      4450   170.16589      339.32488     -2330.7704      7.4125399     -2323.3579     -16412.003    
      4500   166.98234      332.97662     -2330.4519      7.2738624     -2323.1781     -16249.448    
      4550   160.15337      319.35909     -2330.1302      6.976388      -2323.1538     -14555.49     
      4600   195.73048      390.30279     -2331.3292      8.5261507     -2322.803      -16343.181    
      4650   163.96797      326.96571     -2329.9702      7.1425543     -2322.8276     -16498.289    
      4700   178.98612      356.91315     -2330.6467      7.7967551     -2322.8499     -17266.674    
      4750   176.94566      352.8443      -2330.5957      7.7078713     -2322.8878     -17384.209    
      4800   169.44289      337.88317     -2330.247       7.3810458     -2322.8659     -18745.171    
      4850   173.53936      346.05186     -2330.4214      7.5594907     -2322.8619     -17140.67     
      4900   162.60933      324.25647     -2330.0616      7.0833711     -2322.9782     -19416.88     
      4950   195.65132      390.14495     -2331.5314      8.5227026     -2323.0087     -17526.04     
      5000   180.36341      359.65959     -2330.625       7.856751      -2322.7683     -16549.328    
      5050   182.44793      363.81628     -2330.7709      7.9475538     -2322.8233     -19111.084    
      5100   171.85143      342.68599     -2330.5631      7.4859632     -2323.0771     -17841.935    
      5150   168.9269       336.85424     -2330.52        7.3585689     -2323.1614     -15902.911    
      5200   169.58942      338.17535     -2330.4206      7.3874285     -2323.0332     -18056.667    
      5250   170.2455       339.48362     -2330.5161      7.4160076     -2323.1001     -16427.451    
      5300   185.94993      370.79956     -2331.1043      8.1001033     -2323.0042     -14239.73     
      5350   174.93624      348.83735     -2330.6675      7.6203395     -2323.0471     -18000.991    
      5400   167.95581      334.9178      -2330.4103      7.3162675     -2323.094      -16614.827    
      5450   169.32689      337.65185     -2330.5628      7.3759926     -2323.1868     -19220.953    
      5500   170.14017      339.2736      -2330.5495      7.4114197     -2323.1381     -18123.752    
      5550   170.75265      340.49492     -2330.6056      7.4380995     -2323.1675     -16369.504    
      5600   171.87195      342.7269      -2330.6636      7.486857      -2323.1767     -13993.912    
      5650   164.38231      327.79194     -2330.3561      7.1606034     -2323.1955     -17575.037    
      5700   165.1356       329.29406     -2330.4171      7.193417      -2323.2237     -16030.659    
      5750   178.27782      355.50074     -2330.9847      7.765901      -2323.2188     -18852.879    
      5800   179.83638      358.60863     -2330.9934      7.8337929     -2323.1597     -19009.86     
      5850   172.70195      344.382       -2330.6477      7.5230125     -2323.1247     -17238.685    
      5900   177.32107      353.5929      -2330.7575      7.7242243     -2323.0333     -17456.672    
      5950   174.11687      347.20346     -2330.742       7.5846473     -2323.1574     -19213.957    
      6000   166.86589      332.7444      -2330.3996      7.2687896     -2323.1308     -18545.418    
      6050   162.44948      323.93771     -2330.3451      7.0764078     -2323.2687     -18858.968    
      6100   170.14998      339.29315     -2330.6395      7.4118469     -2323.2277     -18102.34     
      6150   181.81209      362.54836     -2331.2433      7.9198561     -2323.3235     -15754.684    
      6200   178.54043      356.0244      -2330.8903      7.7773403     -2323.113      -17659.896    
      6250   180.29878      359.5307      -2331.0394      7.8539354     -2323.1855     -15955.535    
      6300   178.02248      354.99158     -2330.927       7.7547784     -2323.1722     -19420.651    
      6350   160.38257      319.81612     -2330.0772      6.9863719     -2323.0908     -16608.583    
      6400   170.45512      339.90163     -2330.4466      7.4251391     -2323.0214     -18381.92     
      6450   164.35287      327.73324     -2330.16        7.159321      -2323.0007     -15703.889    
      6500   178.16909      355.28392     -2330.8342      7.7611647     -2323.073      -17525.228    
      6550   170.43304      339.8576      -2330.3626      7.4241772     -2322.9385     -15428.899    
      6600   182.67879      364.27664     -2330.9587      7.9576102     -2323.0011     -16209.351    
      6650   176.55199      352.05929     -2330.8006      7.6907226     -2323.1099     -16608.927    
      6700   167.47597      333.96095     -2330.4094      7.2953652     -2323.1141     -16361.877    
      6750   164.18891      327.40628     -2330.2525      7.1521786     -2323.1004     -17524.892    
      6800   159.99128      319.03587     -2330.1118      6.9693272     -2323.1424     -16957.758    
      6850   170.91495      340.81858     -2330.5843      7.4451697     -2323.1392     -19194.579    
      6900   170.72114      340.4321      -2330.7024      7.4367271     -2323.2657     -18862.186    
      6950   146.51654      292.16611     -2329.4925      6.3823583     -2323.1101     -15514.837    
      7000   169.61201      338.2204      -2330.3947      7.3884127     -2323.0062     -14529.056    
      7050   154.77193      308.62806     -2329.7939      6.741969      -2323.0519     -19539.466    
      7100   168.77779      336.55689     -2330.2387      7.3520733     -2322.8866     -15652.469    
      7150   174.42904      347.82595     -2330.5633      7.5982455     -2322.965      -19249.815    
      7200   159.12682      317.31207     -2329.9031      6.9316709     -2322.9714     -18440.462    
      7250   178.1939       355.33339     -2330.7505      7.7622453     -2322.9883     -18001.893    
      7300   159.24737      317.55246     -2329.8813      6.9369222     -2322.9444     -19151.163    
      7350   182.13205      363.18639     -2330.95        7.9337939     -2323.0162     -19471.964    
      7400   166.50233      332.01943     -2330.2086      7.2529527     -2322.9556     -16175.717    
      7450   167.24735      333.50507     -2330.4613      7.2854064     -2323.1759     -16013.232    
      7500   173.29336      345.56132     -2330.5496      7.5487748     -2323.0008     -20106.335    
      7550   160.07843      319.20966     -2329.9891      6.9731237     -2323.0159     -19199.767    
      7600   169.24812      337.49476     -2330.4626      7.3725611     -2323.09       -19304.066    
      7650   179.09361      357.1275      -2330.9689      7.8014375     -2323.1675     -14311.663    
      7700   166.46162      331.93826     -2330.1296      7.2511796     -2322.8784     -17527.403    
      7750   172.37144      343.72293     -2330.4852      7.5086152     -2322.9766     -17943.83     
      7800   181.26042      361.44828     -2330.7777      7.8958249     -2322.8818     -18252.258    
      7850   165.15801      329.33876     -2329.286       7.1943935     -2322.0916     -16332.668    
      7900   187.74002      374.36915     -2330.1231      8.1780808     -2321.945      -15096.748    
      7950   176.5747       352.10458     -2329.5508      7.6917121     -2321.8591     -18539.7      
      8000   177.5346       354.01871     -2329.8459      7.7335261     -2322.1124     -15457.387    
      8050   201.09546      401.00101     -2330.962       8.7598529     -2322.2021     -14668.232    
      8100   176.0012       350.96097     -2329.883       7.66673       -2322.2163     -16675.783    
      8150   196.42736      391.69243     -2330.5994      8.5565072     -2322.0429     -13929.684    
      8200   202.71721      404.23491     -2330.5123      8.8304972     -2321.6818     -18189.697    
      8250   185.1662       369.23675     -2329.9668      8.0659637     -2321.9009     -17760.014    
      8300   197.64078      394.11208     -2330.7335      8.6093644     -2322.1242     -16665.938    
      8350   175.82019      350.60003     -2329.7035      7.6588451     -2322.0447     -12398.878    
      8400   179.97535      358.88576     -2329.9622      7.8398467     -2322.1224     -13031.86     
      8450   181.63458      362.1944      -2330.2915      7.9121238     -2322.3794     -15979.792    
      8500   166.60938      332.2329      -2329.8321      7.257616      -2322.5744     -15876.075    
      8550   176.77246      352.49894     -2330.0502      7.7003268     -2322.3499     -19267.134    
      8600   188.39185      375.66896     -2330.5174      8.206475      -2322.3109     -13981.794    
      8650   173.71332      346.39875     -2329.9248      7.5670684     -2322.3577     -15712.197    
      8700   165.57706      330.17437     -2329.811       7.2126474     -2322.5984     -14343.017    
      8750   177.79544      354.53883     -2330.3575      7.7448882     -2322.6126     -15925.954    
      8800   166.6927       332.39906     -2329.8932      7.2612456     -2322.632      -14376.863    
      8850   172.16821      343.31767     -2330.1775      7.4997624     -2322.6777     -15819.035    
      8900   171.43806      341.86169     -2330.1262      7.4679566     -2322.6583     -14897.736    
      8950   166.18517      331.387       -2330.0077      7.2391372     -2322.7686     -16281.533    
      9000   163.6315       326.29478     -2330.0141      7.1278978     -2322.8862     -14787.374    
      9050   174.79727      348.56023     -2330.3585      7.6142858     -2322.7442     -15544.289    
      9100   191.59603      382.05835     -2330.8428      8.3460511     -2322.4968     -16421.42     
      9150   160.75957      320.5679      -2329.3302      7.0027943     -2322.3274     -15383.083    
      9200   183.84766      366.60746     -2329.6991      8.0085269     -2321.6905     -14899.989    
      9250   188.96406      376.80999     -2329.9474      8.2314008     -2321.716      -16129.416    
      9300   185.45849      369.8196      -2329.7775      8.0786959     -2321.6988     -15162.283    
      9350   171.43191      341.84944     -2329.3333      7.4676889     -2321.8656     -15425.227    
      9400   188.79502      376.47291     -2330.4961      8.2240373     -2322.272      -18410.761    
      9450   168.18088      335.3666      -2329.4299      7.3260715     -2322.1038     -17738.524    
      9500   175.77302      350.50596     -2329.7136      7.6567902     -2322.0568     -16118.807    
      9550   179.82552      358.58698     -2330.2154      7.8333198     -2322.3821     -18729.651    
      9600   195.9699       390.78022     -2330.8733      8.5365801     -2322.3368     -20223.415    
      9650   179.62193      358.18102     -2329.9185      7.8244516     -2322.0941     -18037.779    
      9700   168.8985       336.79761     -2329.3778      7.3573318     -2322.0205     -18684.715    
      9750   178.17188      355.28949     -2330.2311      7.7612863     -2322.4699     -17117.824    
      9800   178.19766      355.3409      -2330.2436      7.7624093     -2322.4812     -20793.154    
      9850   172.15789      343.2971      -2329.8997      7.4993129     -2322.4004     -16160.636    
      9900   173.7149       346.4019      -2330.1263      7.5671373     -2322.5592     -17698.298    
      9950   172.79633      344.57021     -2330.1806      7.5271239     -2322.6535     -16089.479    
     10000   185.9047       370.70937     -2330.8323      8.098133      -2322.7341     -13044.523    
     10050   167.40003      333.80953     -2330.0355      7.2920574     -2322.7435     -19364.98     
     10100   177.13785      353.22754     -2330.6196      7.7162431     -2322.9033     -18900.669    
     10150   169.55886      338.1144      -2330.2275      7.3860971     -2322.8414     -23192.558    
     10200   180.94122      360.81178     -2330.6897      7.8819206     -2322.8077     -16667.412    
     10250   164.59481      328.21569     -2329.4838      7.16986       -2322.314      -18768.171    
     10300   158.80024      316.66083     -2328.9669      6.9174447     -2322.0494     -17723.905    
     10350   185.56542      370.03282     -2329.9814      8.0833538     -2321.8981     -17326.49     
     10400   180.48313      359.89831     -2330.0194      7.8619659     -2322.1574     -16333.62     
     10450   187.19259      373.27754     -2329.9554      8.1542346     -2321.8012     -15949.804    
     10500   186.36092      371.61912     -2329.9231      8.1180065     -2321.8051     -19356.182    
     10550   170.91537      340.8194      -2328.9387      7.4451877     -2321.4935     -16594.585    
     10600   189.68388      378.24537     -2329.3468      8.2627567     -2321.084      -14810.49     
     10650   204.61469      408.01864     -2330.0776      8.9131528     -2321.1644     -17205.266    
     10700   212.91572      424.57158     -2329.9399      9.2747512     -2320.6652     -17831.007    
     10750   213.76778      426.27067     -2330.0733      9.3118677     -2320.7614     -15318.968    
     10800   209.82745      418.41331     -2328.8683      9.1402239     -2319.7281     -18337.121    
     10850   215.59532      429.91493     -2329.6181      9.3914765     -2320.2266     -15959.072    
     10900   202.99451      404.78787     -2329.7547      8.8425766     -2320.9121     -12521.55     
     10950   211.33223      421.41398     -2330.2992      9.2057734     -2321.0934     -17478.687    
     11000   187.12056      373.13389     -2328.8998      8.1510966     -2320.7487     -14840.061    
     11050   189.41632      377.71183     -2328.7061      8.2511016     -2320.455      -17881.432    
     11100   204.76011      408.30863     -2329.2657      8.9194875     -2320.3462     -15211.238    
     11150   194.5423       387.93347     -2328.6412      8.4743928     -2320.1668     -16610.7      
     11200   197.7075       394.24513     -2327.0923      8.6122709     -2318.48       -14269.332    
     11250   204.87631      408.54034     -2327.4985      8.9245493     -2318.5739     -16855.846    
     11300   190.43596      379.74509     -2326.9136      8.295518      -2318.6181     -18863.533    
     11350   231.11189      460.85624     -2328.7997      10.067388     -2318.7323     -17375.446    
     11400   218.77355      436.25259     -2328.3357      9.5299223     -2318.8058     -14515.994    
     11450   217.89789      434.50644     -2328.256       9.4917779     -2318.7642     -18692.967    
     11500   205.69388      410.17064     -2327.8149      8.960163      -2318.8548     -16692.837    
     11550   203.06784      404.9341      -2327.7844      8.845771      -2318.9386     -16892.218    
     11600   212.70514      424.15167     -2328.301       9.2655781     -2319.0354     -16728.672    
     11650   210.95257      420.65691     -2328.3135      9.1892352     -2319.1243     -14990.217    
     11700   213.23643      425.2111      -2328.4767      9.2887214     -2319.188      -16466.827    
     11750   206.51045      411.79895     -2328.2001      8.9957334     -2319.2044     -18034.754    
     11800   205.36555      409.51593     -2328.2368      8.9458608     -2319.2909     -14673.329    
     11850   199.47054      397.76077     -2328.0564      8.68907       -2319.3673     -14662.969    
     11900   214.77666      428.28244     -2328.805       9.3558148     -2319.4492     -18634.428    
     11950   212.85062      424.44176     -2328.8118      9.2719153     -2319.5399     -17830.544    
     12000   220.88653      440.46605     -2329.2552      9.6219652     -2319.6332     -16575.009    
     12050   213.34198      425.42158     -2328.9357      9.2933193     -2319.6424     -14953.893    
     12100   213.52993      425.79636     -2329.0375      9.3015064     -2319.736      -15593.428    
     12150   195.84768      390.5365      -2328.3288      8.5312561     -2319.7976     -17857.131    
     12200   195.51603      389.87517     -2328.401       8.5168092     -2319.8842     -18269.82     
     12250   190.25278      379.37981     -2328.2344      8.2875385     -2319.9469     -15092.961    
     12300   195.18042      389.20592     -2328.6055      8.5021896     -2320.1033     -16962.903    
     12350   194.01815      386.88827     -2328.4516      8.4515604     -2320.0001     -16136.795    
     12400   206.51529      411.8086      -2329.0693      8.9959443     -2320.0734     -16610.572    
     12450   187.37631      373.64388     -2328.3138      8.1622373     -2320.1515     -14608.72     
     12500   180.51393      359.95973     -2328.0767      7.8633074     -2320.2134     -16384.696    
     12550   186.96312      372.81996     -2328.4393      8.1442388     -2320.2951     -15785.394    
     12600   189.50886      377.89637     -2328.6136      8.2551329     -2320.3584     -16242.038    
     12650   169.84518      338.68537     -2327.7792      7.3985698     -2320.3806     -16511.885    
     12700   190.50352      379.87981     -2328.749       8.2984609     -2320.4505     -15709.588    
     12750   199.90826      398.63363     -2329.223       8.7081375     -2320.5148     -16904.309    
     12800   187.55222      373.99467     -2328.7728      8.1699002     -2320.6029     -16418.741    
     12850   206.95753      412.69046     -2329.6947      9.0152084     -2320.6795     -14408.439    
     12900   203.84158      406.47699     -2329.636       8.8794754     -2320.7566     -18088.334    
     12950   212.62536      423.99258     -2330.0552      9.2621029     -2320.7931     -12699.203    
     13000   207.08244      412.93953     -2329.9559      9.0206495     -2320.9353     -17878.54     
     13050   199.91277      398.64262     -2329.6652      8.7083339     -2320.9569     -16371.376    
     13100   188.94004      376.7621      -2329.2899      8.2303547     -2321.0595     -15285.796    
     13150   181.59184      362.10917     -2329.0266      7.910262      -2321.1164     -18105.278    
     13200   175.54662      350.05449     -2328.8442      7.646928      -2321.1973     -15268.152    
     13250   194.03215      386.91619     -2329.6277      8.4521703     -2321.1755     -16878.652    
     13300   176.23865      351.43447     -2328.9161      7.6770736     -2321.2391     -16476.869    
     13350   168.44991      335.90307     -2328.6404      7.3377906     -2321.3026     -16802.888    
     13400   183.79617      366.50479     -2329.4066      8.0062842     -2321.4003     -16818.62     
     13450   179.7973       358.53071     -2329.2706      7.8320907     -2321.4385     -17842.822    
     13500   186.04753      370.99419     -2329.6448      8.1043549     -2321.5405     -18119.973    
     13550   197.25943      393.35165     -2330.0643      8.5927527     -2321.4715     -19046.627    
     13600   184.71386      368.33474     -2329.6514      8.0462594     -2321.6052     -16384.926    
     13650   180.40815      359.74879     -2329.5443      7.8586996     -2321.6856     -18789.319    
     13700   181.6773       362.27958     -2329.6672      7.9139846     -2321.7532     -21822.43     
     13750   179.05745      357.05539     -2329.6152      7.7998623     -2321.8153     -18208.375    
     13800   176.37244      351.70125     -2329.5691      7.6829013     -2321.8862     -17141.078    
     13850   171.08843      341.1645      -2329.3131      7.4527264     -2321.8604     -19218.949    
     13900   178.48174      355.90737     -2329.7257      7.7747838     -2321.9509     -16585.63     
     13950   187.92937      374.74674     -2330.166       8.1863292     -2321.9797     -18387.147    
     14000   187.36045      373.61226     -2330.2839      8.1615465     -2322.1223     -16920.496    
     14050   183.50995      365.93405     -2330.1326      7.9938162     -2322.1388     -19900.097    
     14100   182.44292      363.8063      -2330.1481      7.9473356     -2322.2008     -17998.065    
     14150   178.5872       356.11768     -2329.9632      7.7793781     -2322.1838     -17507.331    
     14200   173.49108      345.95558     -2329.7944      7.5573873     -2322.237      -16418.546    
     14250   169.55265      338.10204     -2329.6922      7.385827      -2322.3064     -14817.553    
     14300   161.1486       321.34365     -2329.3787      7.0197407     -2322.3589     -19388.832    
     14350   171.08711      341.16187     -2329.8711      7.4526689     -2322.4184     -17423.934    
     14400   166.85189      332.71649     -2329.746       7.2681799     -2322.4778     -14592.992    
     14450   174.51619      347.99974     -2330.0574      7.602042      -2322.4554     -14709.119    
     14500   171.00244      340.99303     -2329.9573      7.4489805     -2322.5084     -16244.1      
     14550   185.40554      369.714       -2330.6512      8.0763892     -2322.5748     -15138.158    
     14600   171.13489      341.25715     -2330.0776      7.4547504     -2322.6229     -14959.483    
     14650   196.72298      392.28191     -2331.2532      8.5693845     -2322.6838     -15922.001    
     14700   176.99771      352.9481      -2330.4625      7.7101387     -2322.7524     -14677.351    
     14750   177.77366      354.49541     -2330.4564      7.7439397     -2322.7125     -15913.105    
     14800   164.92195      328.86803     -2329.946       7.1841104     -2322.7619     -16181.543    
     14850   164.30826      327.64428     -2329.979       7.1573776     -2322.8216     -15853.315    
     14900   167.54802      334.10463     -2330.1775      7.2985037     -2322.879      -15745.434    
     14950   165.67209      330.36388     -2330.1554      7.2167872     -2322.9386     -15925.431    
     15000   173.17526      345.32581     -2330.5284      7.54363       -2322.9848     -15274.255    
     15050   170.17829      339.34961     -2330.3376      7.4130802     -2322.9245     -14943.528    
     15100   173.09593      345.16762     -2330.4864      7.5401744     -2322.9462     -13353.67     
     15150   170.73207      340.45389     -2330.4486      7.4372032     -2323.0114     -13610.423    
     15200   173.51551      346.00429     -2330.6242      7.5584515     -2323.0658     -15105.396    
     15250   188.84259      376.56777     -2331.3424      8.2261096     -2323.1163     -13444.973    
     15300   170.56395      340.11865     -2330.5967      7.4298798     -2323.1669     -16203.376    
     15350   181.0219       360.97267     -2331.0825      7.8854351     -2323.1971     -14495.773    
     15400   180.85886      360.64755     -2331.1491      7.8783329     -2323.2708     -14687.683    
     15450   185.60744      370.1166      -2331.3998      8.085184      -2323.3146     -15725.126    
     15500   178.83771      356.6172      -2331.1632      7.7902901     -2323.373      -16211.562    
     15550   172.04551      343.073       -2330.9136      7.4944175     -2323.4192     -13988.177    
     15600   163.10515      325.24519     -2330.5896      7.1049696     -2323.4847     -16073.548    
     15650   176.38842      351.73313     -2331.0675      7.6835977     -2323.3839     -15224.523    
     15700   172.69533      344.36879     -2331.0185      7.5227239     -2323.4958     -15268.472    
     15750   173.71492      346.40193     -2331.2115      7.5671379     -2323.6443     -16406.319    
     15800   174.52913      348.02555     -2331.2031      7.6026057     -2323.6005     -20246.499    
     15850   172.67301      344.32429     -2331.1803      7.5217518     -2323.6585     -16384.014    
     15900   174.84835      348.66208     -2331.3212      7.6165109     -2323.7047     -15719.787    
     15950   176.26895      351.49489     -2331.3225      7.6783933     -2323.6441     -18920.525    
     16000   170.64927      340.28878     -2331.105       7.4335963     -2323.6714     -18239.222    
     16050   155.06628      309.215       -2330.4628      6.7547908     -2323.708      -16283.75     
     16100   167.81225      334.63153     -2331.0481      7.3100138     -2323.7381     -20794.818    
     16150   169.45061      337.89856     -2331.1717      7.381382      -2323.7903     -15306.823    
     16200   152.50714      304.11188     -2330.4799      6.6433132     -2323.8366     -17510.754    
     16250   164.86331      328.7511      -2331.0034      7.181556      -2323.8218     -18648.191    
     16300   173.26649      345.50773     -2331.3675      7.5476042     -2323.8199     -19465.06     
     16350   153.27935      305.65171     -2330.4353      6.6769509     -2323.7583     -17199.248    
     16400   170.36073      339.71341     -2331.2425      7.4210274     -2323.8215     -14335.314    
     16450   157.64017      314.34757     -2330.7151      6.8669114     -2323.8482     -19997.159    
     16500   158.1416       315.34745     -2330.7865      6.8887539     -2323.8978     -15816.253    
     16550   175.70016      350.36068     -2331.3703      7.6536166     -2323.7167     -15213.537    
     16600   168.79614      336.59349     -2331.1217      7.3528728     -2323.7688     -16108.094    
     16650   159.8434       318.74099     -2330.7195      6.9628856     -2323.7567     -20105.662    
     16700   147.60248      294.33158     -2330.2981      6.4296629     -2323.8684     -17631.023    
     16750   148.18664      295.49643     -2330.4004      6.455109      -2323.9453     -15628.773    
     16800   165.98043      330.97873     -2331.1839      7.2302186     -2323.9536     -20087.161    
     16850   161.43555      321.91586     -2331.0481      7.0322405     -2324.0159     -19436.249    
     16900   160.11157      319.27573     -2331.0026      6.974567      -2324.028      -15839.359    
     16950   161.14976      321.34596     -2331.0021      7.0197911     -2323.9823     -20718.08     
     17000   157.51565      314.09925     -2330.8634      6.8614869     -2324.0019     -16339.536    
     17050   167.46523      333.93953     -2331.4115      7.2948972     -2324.1166     -18389.406    
     17100   170.87283      340.73458     -2331.5083      7.4433348     -2324.0649     -16208.31     
     17150   174.27231      347.51343     -2331.5974      7.5914186     -2324.0059     -17071.825    
     17200   154.66784      308.42049     -2330.7877      6.7374347     -2324.0503     -13761.671    
     17250   153.54881      306.18906     -2330.7644      6.688689      -2324.0757     -16073.934    
     17300   164.03288      327.09514     -2331.2968      7.1453818     -2324.1514     -16658.85     
     17350   167.00771      333.0272      -2331.507       7.2749675     -2324.232      -17013.46     
     17400   168.95309      336.90645     -2331.5708      7.3597094     -2324.2111     -13919.6      
     17450   154.88815      308.8598      -2331.0311      6.7470314     -2324.284      -20201.785    
     17500   168.34966      335.70318     -2331.5981      7.333424      -2324.2646     -13802.965    
     17550   166.47853      331.97198     -2331.5956      7.2519162     -2324.3437     -18991.481    
     17600   183.65088      366.21506     -2332.2575      7.999955      -2324.2576     -17030.739    
     17650   166.70289      332.41936     -2331.5677      7.2616892     -2324.306      -15524.934    
     17700   157.96844      315.00216     -2331.184       6.8812109     -2324.3028     -17482.828    
     17750   169.68143      338.35884     -2331.7486      7.3914368     -2324.3571     -13196.644    
     17800   165.96162      330.94121     -2331.6313      7.229399      -2324.4019     -16443.301    
     17850   152.14683      303.39338     -2331.0678      6.6276176     -2324.4401     -15522.134    
     17900   157.22238      313.51446     -2331.3324      6.8487122     -2324.4837     -16818.155    
     17950   169.15507      337.30922     -2331.7042      7.368508      -2324.3357     -14583.194    
     18000   174.35438      347.67708     -2332.0615      7.5949934     -2324.4666     -17733.839    
     18050   160.80635      320.66118     -2331.3259      7.0048321     -2324.321      -16382.599    
     18100   172.60292      344.18452     -2331.9149      7.5186986     -2324.3962     -14904.125    
     18150   157.8072       314.68063     -2331.3081      6.8741872     -2324.4339     -18792.394    
     18200   167.64553      334.29907     -2331.7876      7.3027514     -2324.4849     -16163.916    
     18250   151.01988      301.14615     -2331.0982      6.5785269     -2324.5196     -14362.577    
     18300   163.62737      326.28653     -2331.6926      7.1277177     -2324.5649     -16723.47     
     18350   145.15745      289.45598     -2330.9001      6.3231557     -2324.5769     -13039.272    
     18400   152.49389      304.08544     -2331.2827      6.6427357     -2324.64       -16305.57     
     18450   168.44258      335.88846     -2332.0155      7.3374715     -2324.6781     -15118.453    
     18500   155.53504      310.14976     -2331.5021      6.7752105     -2324.7269     -17337.259    
     18550   156.68711      312.44708     -2331.5806      6.8253954     -2324.7552     -18091.103    
     18600   162.29122      323.62214     -2331.8519      7.0695141     -2324.7824     -16866.718    
     18650   163.61377      326.25941     -2331.9368      7.1271252     -2324.8097     -18816.631    
     18700   168.02376      335.0533      -2332.0936      7.3192274     -2324.7744     -17260.401    
     18750   157.77921      314.62481     -2331.7616      6.8729678     -2324.8886     -14657.459    
     18800   154.17656      307.44084     -2331.6732      6.7160343     -2324.9572     -17768.891    
     18850   153.9003       306.88995     -2331.657       6.7040002     -2324.953      -16169.871    
     18900   147.90459      294.934       -2331.4233      6.4428228     -2324.9805     -15766.239    
     18950   153.9835       307.05586     -2331.6897      6.7076244     -2324.9821     -15392.363    
     19000   174.33996      347.64833     -2332.4512      7.5943655     -2324.8568     -17308.287    
     19050   148.37888      295.87978     -2331.2894      6.4634832     -2324.8259     -20737.36     
     19100   155.03694      309.15651     -2331.5193      6.753513      -2324.7657     -15719.759    
     19150   160.05348      319.15989     -2331.7776      6.9720364     -2324.8056     -18977.409    
     19200   150.08724      299.2864      -2331.3428      6.5379007     -2324.8049     -15257.783    
     19250   160.69601      320.44116     -2331.8498      7.0000258     -2324.8498     -16307.552    
     19300   146.39167      291.91712     -2331.2407      6.3769191     -2324.8638     -18005.258    
     19350   159.0797       317.2181      -2331.844       6.9296182     -2324.9143     -16521.158    
     19400   168.64993      336.30194     -2332.3301      7.3465039     -2324.9836     -16127.445    
     19450   165.02303      329.06959     -2332.21        7.1885135     -2325.0215     -16071.148    
     19500   154.71678      308.51807     -2331.7315      6.7395662     -2324.9919     -16662.458    
     19550   158.07472      315.21408     -2331.7585      6.8858404     -2324.8726     -14665.538    
     19600   159.30297      317.66333     -2331.8513      6.9393441     -2324.9119     -14324.265    
     19650   158.5617       316.18517     -2331.9767      6.9070539     -2325.0697     -16431.816    
     19700   156.056        311.18859     -2331.7784      6.7979036     -2324.9805     -15273.775    
     19750   160.63736      320.32421     -2332.0158      6.997471      -2325.0184     -16200.825    
     19800   149.49687      298.10914     -2331.5506      6.5121835     -2325.0385     -15767.073    
     19850   163.79685      326.62448     -2332.1279      7.1351002     -2324.9928     -14586.72     
     19900   152.41817      303.93445     -2331.6664      6.6394373     -2325.027      -16265.493    
     19950   159.96056      318.9746      -2332.0141      6.9679889     -2325.0461     -18560.64     
     20000   164.39681      327.82086     -2332.2488      7.161235      -2325.0875     -17063.217    
     20050   152.58622      304.26957     -2331.7644      6.646758      -2325.1176     -17261.041    
     20100   150.59777      300.30443     -2331.6925      6.5601397     -2325.1324     -16191.23     
     20150   155.52101      310.12178     -2331.8629      6.7745993     -2325.0883     -14563.559    
     20200   159.01991      317.09888     -2332.1095      6.9270138     -2325.1825     -15327.933    
     20250   158.20068      315.46526     -2332.0921      6.8913273     -2325.2008     -14887.091    
     20300   149.49756      298.11053     -2331.7602      6.5122139     -2325.248      -13777.259    
     20350   154.20928      307.50608     -2331.9169      6.7174594     -2325.1995     -18224.532    
     20400   173.23001      345.43499     -2332.8112      7.546015      -2325.2651     -17833.84     
     20450   167.96965      334.9454      -2332.4971      7.3168703     -2325.1802     -16755.567    
     20500   153.39337      305.87908     -2331.8772      6.6819177     -2325.1952     -15814.161    
     20550   164.91884      328.86183     -2332.4495      7.1839749     -2325.2655     -15599.779    
     20600   148.61836      296.35733     -2331.6998      6.4739153     -2325.2259     -15672.146    
     20650   155.39448      309.86947     -2332.033       6.7690876     -2325.2639     -17210.403    
     20700   153.62149      306.33398     -2331.9949      6.691855      -2325.3031     -14832.419    
     20750   157.82477      314.71566     -2332.2274      6.8749525     -2325.3524     -15764.043    
     20800   155.4897       310.05934     -2332.185       6.7732352     -2325.4118     -14827.946    
     20850   144.63775      288.41966     -2331.7584      6.3005173     -2325.4579     -15634.166    
     20900   148.96671      297.05195     -2331.9631      6.4890894     -2325.474      -14861.314    
     20950   150.03792      299.18803     -2332.1037      6.535752      -2325.568      -17239.545    
     21000   148.97366      297.06581     -2332.0447      6.4893921     -2325.5553     -19127.583    
     21050   158.74819      316.55704     -2332.4973      6.9151772     -2325.5821     -13967.402    
     21100   166.20612      331.42877     -2332.8196      7.2400498     -2325.5795     -13025.315    
     21150   161.31624      321.67794     -2332.6384      7.0270431     -2325.6114     -16947.757    
     21200   162.42173      323.88238     -2332.7105      7.0751991     -2325.6353     -16237.079    
     21250   157.98796      315.04107     -2332.5574      6.882061      -2325.6754     -13711.655    
     21300   154.65155      308.388       -2332.5209      6.736725      -2325.7841     -17669.025    
     21350   158.15082      315.36583     -2332.6734      6.8891555     -2325.7842     -14576.904    
     21400   148.61435      296.34933     -2332.2778      6.4737406     -2325.804      -14100.14     
     21450   165.76566      330.55046     -2333.0461      7.2208632     -2325.8252     -16588.01     
     21500   149.4858       298.08706     -2332.2608      6.5117014     -2325.7491     -15066.539    
     21550   156.02175      311.12029     -2332.5808      6.7964117     -2325.7844     -16214.947    
     21600   151.49376      302.09112     -2332.413       6.5991697     -2325.8138     -15479.762    
     21650   154.94342      308.97002     -2332.5148      6.7494391     -2325.7654     -13812.063    
     21700   153.12768      305.34927     -2332.5156      6.670344      -2325.8453     -15251.007    
     21750   145.93519      291.00685     -2332.2014      6.3570343     -2325.8444     -13945.035    
     21800   153.4133       305.91882     -2332.5558      6.6827858     -2325.8731     -18826.222    
     21850   143.11495      285.38306     -2332.1124      6.2341829     -2325.8782     -14651.276    
     21900   151.95773      303.01629     -2332.4934      6.6193802     -2325.874      -17481.601    
     21950   150.5968       300.3025      -2332.3531      6.5600974     -2325.793      -13657.363    
     22000   175.18888      349.34114     -2333.6383      7.6313448     -2326.007      -15484.215    
     22050   154.4491       307.98431     -2332.7635      6.7279062     -2326.0356     -16811.736    
     22100   147.5318       294.19064     -2332.4309      6.426584      -2326.0043     -16301        
     22150   145.37677      289.89332     -2332.3892      6.3327092     -2326.0565     -15146.07     
     22200   142.53041      284.21744     -2332.1794      6.20872       -2325.9707     -16718.97     
     22250   141.15175      281.46829     -2332.0978      6.1486648     -2325.9492     -16578.572    
     22300   149.21086      297.53881     -2332.4661      6.4997248     -2325.9664     -19594.279    
     22350   146.33811      291.81031     -2332.3334      6.374586      -2325.9588     -15455.691    
     22400   146.08465      291.3049      -2332.4308      6.3635453     -2326.0672     -15968.076    
     22450   144.45155      288.04835     -2332.3667      6.2924061     -2326.0742     -16165.773    
     22500   140.68593      280.53939     -2332.2132      6.1283731     -2326.0849     -17293.699    
     22550   139.04448      277.26622     -2332.1517      6.0568706     -2326.0948     -14827.152    
     22600   152.62519      304.34727     -2332.7353      6.6484553     -2326.0868     -17008.226    
     22650   140.28942      279.74872     -2332.1147      6.1111008     -2326.0036     -14596.947    
     22700   149.96926      299.05112     -2332.615       6.5327612     -2326.0823     -16625.896    
     22750   146.51919      292.17141     -2332.4498      6.382474      -2326.0674     -17150.1      
     22800   142.81746      284.78984     -2332.3223      6.2212239     -2326.1011     -16295.64     
     22850   156.52475      312.12331     -2332.7444      6.8183226     -2325.9261     -17403.478    
     22900   152.50535      304.1083      -2332.6662      6.643235      -2326.023      -16505.327    
     22950   154.06105      307.21049     -2332.6742      6.7110022     -2325.9632     -15472.952    
     23000   145.9442       291.02482     -2332.3749      6.3574269     -2326.0175     -16614.902    
     23050   134.26482      267.73517     -2331.7781      5.8486653     -2325.9294     -16560.45     
     23100   139.37132      277.91796     -2332.0856      6.071108      -2326.0145     -16721.507    
     23150   147.12328      293.37601     -2332.2321      6.4087886     -2325.8233     -16018.619    
     23200   150.8389       300.78526     -2332.4676      6.5706433     -2325.8969     -17579.622    
     23250   160.42915      319.90901     -2332.8717      6.9884009     -2325.8833     -16237.141    
     23300   155.70382      310.48633     -2332.5465      6.7825628     -2325.7639     -17845.868    
     23350   159.11034      317.27921     -2332.741       6.930953      -2325.8101     -15592.978    
     23400   156.92534      312.92212     -2332.6561      6.8357727     -2325.8204     -17885.084    
     23450   148.73326      296.58644     -2332.2449      6.4789201     -2325.766      -16915.729    
     23500   153.69423      306.47903     -2332.4857      6.6950236     -2325.7906     -15832.107    
     23550   154.63873      308.36243     -2332.5625      6.7361663     -2325.8264     -17482.912    
     23600   141.86541      282.89139     -2332.0155      6.1797523     -2325.8357     -16792.46     
     23650   144.43304      288.01145     -2332.1536      6.2915999     -2325.862      -18470.897    
     23700   142.60157      284.35935     -2332.0966      6.2118198     -2325.8848     -14829.823    
     23750   149.04273      297.20355     -2332.3477      6.4924011     -2325.8553     -16711.95     
     23800   145.81351      290.76421     -2332.244       6.3517339     -2325.8923     -13453.195    
     23850   154.21731      307.52208     -2332.6359      6.717809      -2325.9181     -15142.003    
     23900   144.29191      287.73003     -2332.2136      6.2854523     -2325.9281     -18105.053    
     23950   146.31519      291.76461     -2332.3293      6.3735875     -2325.9557     -18131.539    
     24000   138.8695       276.91728     -2332.0253      6.0492482     -2325.9761     -16355.512    
     24050   129.82262      258.87705     -2331.5689      5.65516       -2325.9137     -15682.852    
     24100   135.12942      269.45926     -2331.8854      5.8863279     -2325.9991     -14895.492    
     24150   150.04825      299.20864     -2332.5101      6.536202      -2325.9739     -14663.692    
     24200   144.25584      287.65809     -2332.2714      6.2838807     -2325.9875     -14518.93     
     24250   139.84265      278.85783     -2332.0951      6.0916393     -2326.0035     -16288.589    
     24300   155.01286      309.10848     -2332.7772      6.7524638     -2326.0248     -18545.361    
     24350   149.5222       298.15965     -2332.4296      6.5132869     -2325.9164     -13970.738    
     24400   154.80358      308.69117     -2332.6714      6.7433477     -2325.928      -17167.19     
     24450   147.02656      293.18315     -2332.3498      6.4045754     -2325.9452     -16839.452    
     24500   148.26826      295.65919     -2332.4235      6.4586645     -2325.9648     -14298.429    
     24550   146.33069      291.79551     -2332.3568      6.3742626     -2325.9825     -18239.595    
     24600   149.07888      297.27563     -2332.4978      6.4939757     -2326.0038     -17347.305    
     24650   154.69862      308.48186     -2332.6509      6.7387753     -2325.9121     -14950.309    
     24700   156.45986      311.99392     -2332.785       6.8154962     -2325.9695     -15435.153    
     24750   149.12955      297.37668     -2332.3496      6.496183      -2325.8535     -18053.995    
     24800   145.65051      290.43919     -2332.2194      6.3446338     -2325.8748     -15969.736    
     24850   144.62683      288.39788     -2332.1915      6.3000415     -2325.8915     -14817.867    
     24900   145.86878      290.87444     -2332.2657      6.3541418     -2325.9116     -15735.216    
     24950   154.22551      307.53844     -2332.5877      6.7181664     -2325.8695     -18033.451    
     25000   147.81302      294.7514      -2332.3137      6.4388339     -2325.8748     -17498.239    
     25050   148.81306      296.74556     -2332.3746      6.4823963     -2325.8922     -13380.264    
     25100   149.39163      297.89928     -2332.4397      6.5075992     -2325.9321     -17010.744    
     25150   156.02236      311.12151     -2332.739       6.7964383     -2325.9426     -16848.269    
     25200   157.25604      313.58156     -2332.8176      6.8501781     -2325.9674     -20198.515    
     25250   155.92523      310.92783     -2332.7301      6.7922074     -2325.9379     -13846.696    
     25300   150.73171      300.57151     -2332.5273      6.565974      -2325.9613     -16905.489    
     25350   163.20128      325.43686     -2333.0796      7.1091567     -2325.9704     -16904.478    
     25400   157.35513      313.77917     -2332.8416      6.8544948     -2325.9871     -18747.044    
     25450   158.88184      316.82354     -2332.9419      6.920999      -2326.0209     -15681.909    
     25500   143.51989      286.19054     -2332.2922      6.2518222     -2326.0404     -16357.049    
     25550   160.76921      320.58713     -2333.0607      7.0032145     -2326.0575     -14971.712    
     25600   157.53553      314.13889     -2332.9663      6.862353      -2326.1039     -18774.41     
     25650   145.2857       289.71173     -2332.3994      6.3287424     -2326.0707     -16923.479    
     25700   156.09902      311.27439     -2332.8654      6.7997779     -2326.0656     -17881.449    
     25750   162.25962      323.55912     -2333.1616      7.0681375     -2326.0935     -14836.706    
     25800   155.80101      310.68012     -2332.8481      6.7867963     -2326.0613     -17151.111    
     25850   147.51304      294.15322     -2332.5146      6.4257667     -2326.0889     -16480.202    
     25900   158.41529      315.89321     -2332.9847      6.9006759     -2326.084      -16804.976    
     25950   151.20041      301.50615     -2332.6429      6.5863911     -2326.0565     -16891.573    
     26000   144.8324       288.80781     -2332.3679      6.3089963     -2326.0589     -18991.915    
     26050   143.58153      286.31347     -2332.3049      6.2545075     -2326.0504     -17618.111    
     26100   151.17079      301.44708     -2332.6522      6.5851008     -2326.0671     -18293.378    
     26150   140.50534      280.17928     -2332.1041      6.1205065     -2325.9835     -18756.654    
     26200   147.62368      294.37384     -2332.4219      6.4305861     -2325.9913     -20036.287    
     26250   158.06225      315.18923     -2332.8933      6.8852975     -2326.008      -16657.047    
     26300   152.15383      303.40734     -2332.6203      6.6279226     -2325.9924     -17199.876    
     26350   146.24118      291.61703     -2332.4268      6.3703637     -2326.0564     -15194.765    
     26400   148.56067      296.24229     -2332.5503      6.4714023     -2326.0789     -16468.668    
     26450   157.88815      314.84206     -2332.9089      6.8777136     -2326.0312     -16125.083    
     26500   138.92967      277.03728     -2332.0759      6.0518696     -2326.0241     -15144.681    
     26550   133.50332      266.21668     -2331.8632      5.8154939     -2326.0477     -20792.233    
     26600   154.29362      307.67426     -2332.779       6.7211334     -2326.0579     -13930.183    
     26650   143.55106      286.25271     -2332.334       6.2531802     -2326.0809     -16333.138    
     26700   146.75061      292.63288     -2332.5038      6.3925549     -2326.1113     -15991.609    
     26750   149.90672      298.92641     -2332.5656      6.5300368     -2326.0356     -16528.212    
     26800   160.11408      319.28075     -2333.0302      6.9746766     -2326.0555     -14286.638    
     26850   147.66383      294.45391     -2332.5163      6.4323352     -2326.084      -13500.121    
     26900   143.96401      287.07616     -2332.4582      6.2711684     -2326.1871     -19112.848    
     26950   151.28101      301.66687     -2332.7119      6.589902      -2326.122      -15103.495    
     27000   142.9668       285.08764     -2332.3521      6.2277293     -2326.1243     -15747.705    
     27050   143.75718      286.66372     -2332.28        6.2621587     -2326.0179     -16123.88     
     27100   151.09728      301.30049     -2332.7192      6.5818986     -2326.1373     -14378.844    
     27150   148.83454      296.7884      -2332.5508      6.4833321     -2326.0675     -15314.211    
     27200   142.49235      284.14156     -2332.2803      6.2070622     -2326.0732     -16042.444    
     27250   152.42532      303.94871     -2332.7357      6.6397487     -2326.0959     -18224.579    
     27300   144.4068       287.95913     -2332.3973      6.2904569     -2326.1069     -14253.613    
     27350   136.7205       272.632       -2332.0786      5.9556363     -2326.1229     -15145.577    
     27400   145.55917      290.25705     -2332.5106      6.340655      -2326.1699     -14302.816    
     27450   157.29129      313.65185     -2333.0719      6.8517136     -2326.2202     -15414.407    
     27500   155.29652      309.67414     -2332.8867      6.7648205     -2326.1219     -14949.496    
     27550   149.52344      298.16212     -2332.5928      6.5133408     -2326.0795     -18463.115    
     27600   151.65745      302.41752     -2332.8013      6.6062999     -2326.195      -14877.025    
     27650   150.55719      300.2235      -2332.5955      6.5583718     -2326.0371     -16530.896    
     27700   142.86306      284.88079     -2332.2822      6.2232107     -2326.059      -18954.909    
     27750   145.75968      290.65687     -2332.4709      6.349389      -2326.1215     -17283.027    
     27800   152.9734       305.04164     -2332.7717      6.6636237     -2326.1081     -18474.977    
     27850   141.44908      282.06118     -2332.2762      6.1616166     -2326.1146     -16326.488    
     27900   160.98661      321.02064     -2333.0979      7.0126844     -2326.0852     -14068.189    
     27950   148.10695      295.33752     -2332.2889      6.4516377     -2325.8373     -17466.96     
     28000   144.77338      288.69011     -2332.1682      6.3064252     -2325.8618     -14360.19     
     28050   156.7695       312.61137     -2332.7234      6.8289843     -2325.8944     -15634.041    
     28100   153.6085       306.30807     -2332.583       6.6912888     -2325.8917     -18955.729    
     28150   156.06841      311.21333     -2332.6958      6.7984442     -2325.8974     -18920.295    
     28200   154.34507      307.77686     -2332.6435      6.7233746     -2325.9201     -17796.889    
     28250   148.14781      295.41901     -2332.3565      6.4534177     -2325.9031     -16661.736    
     28300   151.10406      301.31401     -2332.5069      6.5821939     -2325.9247     -15369.801    
     28350   160.85094      320.75009     -2332.9502      7.0067743     -2325.9435     -17805.149    
     28400   152.41143      303.92102     -2332.6072      6.6391438     -2325.968      -18345.357    
     28450   152.04222      303.18479     -2332.6178      6.6230609     -2325.9947     -17753.913    
     28500   153.23549      305.56426     -2332.6796      6.6750404     -2326.0046     -19932.197    
     28550   153.32765      305.74804     -2332.6838      6.679055      -2326.0048     -17797.925    
     28600   158.07521      315.21506     -2332.8026      6.8858617     -2325.9168     -18830.868    
     28650   142.46431      284.08563     -2332.1838      6.2058404     -2325.9779     -16546.968    
     28700   150.74435      300.59672     -2332.5334      6.5665247     -2325.9668     -20132.353    
     28750   147.43083      293.9893      -2332.4816      6.4221857     -2326.0594     -19042.372    
     28800   142.25226      283.6628      -2332.257       6.1966037     -2326.0604     -17355.221    
     28850   148.04995      295.22386     -2332.384       6.4491547     -2325.9348     -17421.722    
     28900   145.45353      290.04639     -2332.3386      6.3360532     -2326.0026     -17222.547    
     28950   146.24499      291.62462     -2332.3611      6.3705294     -2325.9906     -18376.114    
     29000   140.20145      279.57331     -2332.1544      6.1072691     -2326.0472     -17773.542    
     29050   149.57953      298.27397     -2332.6152      6.5157844     -2326.0994     -17474.433    
     29100   152.82177      304.73928     -2332.7142      6.6570187     -2326.0572     -16137.825    
     29150   149.02116      297.16054     -2332.5409      6.4914614     -2326.0494     -17295.44     
     29200   151.90985      302.92082     -2332.6884      6.6172946     -2326.0711     -15313.712    
     29250   134.52326      268.25053     -2331.9427      5.8599233     -2326.0827     -18448.458    
     29300   140.77481      280.71663     -2332.2386      6.1322448     -2326.1063     -15827.696    
     29350   142.04671      283.25291     -2332.3065      6.1876497     -2326.1188     -19976.928    
     29400   137.71602      274.61716     -2332.1317      5.9990021     -2326.1327     -17032.882    
     29450   135.66385      270.52495     -2331.8855      5.909608      -2325.9759     -14285.878    
     29500   141.99645      283.15269     -2332.1861      6.1854604     -2326.0006     -15801.425    
     29550   153.80288      306.69568     -2332.7493      6.6997563     -2326.0496     -16019.811    
     29600   138.30977      275.80113     -2332.1269      6.0248659     -2326.1021     -17284.169    
     29650   147.62271      294.37192     -2332.4836      6.4305441     -2326.053      -16388.464    
     29700   150.47129      300.05222     -2332.5426      6.5546301     -2325.9879     -15125.419    
     29750   157.35742      313.78373     -2332.673       6.8545944     -2325.8184     -16501.153    
     29800   143.13219      285.41744     -2332.1246      6.2349338     -2325.8896     -15966.175    
     29850   147.81604      294.75743     -2332.3634      6.4389656     -2325.9245     -15222.013    
     29900   144.17685      287.50058     -2332.2388      6.28044       -2325.9583     -18546.033    
     29950   155.50589      310.09164     -2332.7962      6.7739408     -2326.0222     -16135.416    
     30000   152.61415      304.32526     -2332.6097      6.6479746     -2325.9617     -14426.408    
     30050   151.47426      302.05223     -2332.6193      6.5983202     -2326.021      -18912.1      
     30100   154.70092      308.48646     -2332.7188      6.7388757     -2325.9799     -14533.216    
     30150   141.51011      282.18289     -2332.1759      6.1642751     -2326.0117     -12654.08     
     30200   152.54164      304.18066     -2332.6867      6.6448158     -2326.0419     -15614.124    
     30250   159.10539      317.26934     -2333.0264      6.9307374     -2326.0957     -14188.664    
     30300   140.44627      280.0615      -2332.2287      6.1179336     -2326.1107     -17889.111    
     30350   145.17809      289.49714     -2332.3441      6.3240548     -2326.0201     -16874.149    
     30400   150.29344      299.69757     -2332.4371      6.5468827     -2325.8902     -15227.716    
     30450   155.48596      310.05189     -2332.682       6.7730725     -2325.909      -15813.052    
     30500   156.63546      312.34408     -2332.6345      6.8231453     -2325.8114     -14118.272    
     30550   158.27103      315.60555     -2332.7253      6.8943919     -2325.8309     -18318.873    
     30600   150.82692      300.76137     -2332.4638      6.5701214     -2325.8937     -19663.145    
     30650   160.49444      320.03922     -2332.8021      6.9912453     -2325.8109     -13993.556    
     30700   157.34977      313.76848     -2332.7112      6.8542614     -2325.857      -14823.343    
     30750   149.8984       298.90982     -2332.2966      6.5296745     -2325.7669     -15985.701    
     30800   144.37499      287.8957      -2332.1131      6.2890713     -2325.824      -18776.011    
     30850   151.79605      302.6939      -2332.4737      6.6123375     -2325.8614     -14940.835    
     30900   153.68052      306.45169     -2332.5272      6.6944263     -2325.8328     -16014.393    
     30950   157.34072      313.75043     -2332.7335      6.853867      -2325.8796     -19324.32     
     31000   137.22774      273.64347     -2331.8928      5.977732      -2325.915      -17317.134    
     31050   156.24932      311.57409     -2332.6688      6.806325      -2325.8625     -14485.085    
     31100   140.62712      280.42212     -2332.0201      6.1258113     -2325.8943     -17661.56     
     31150   144.79717      288.73755     -2332.2236      6.3074615     -2325.9161     -17506.876    
     31200   168.386        335.77563     -2333.2278      7.3350068     -2325.8928     -14294.195    
     31250   148.22438      295.5717      -2332.2183      6.4567532     -2325.7616     -16281.313    
     31300   147.92409      294.9729      -2332.2151      6.4436725     -2325.7714     -16097.737    
     31350   156.83937      312.75069     -2332.5665      6.8320276     -2325.7344     -19260.307    
     31400   137.78937      274.76341     -2331.7294      6.002197      -2325.7272     -17337.706    
     31450   141.69933      282.5602      -2331.8667      6.1725176     -2325.6941     -18165.963    
     31500   156.49859      312.07116     -2332.5289      6.8171834     -2325.7117     -19311.423    
     31550   146.23968      291.61403     -2332.0793      6.3702982     -2325.709      -17400.889    
     31600   146.33669      291.80748     -2332.0315      6.3745239     -2325.6569     -16476.947    
     31650   149.40149      297.91895     -2332.1072      6.508029      -2325.5992     -17682.932    
     31700   149.83643      298.78625     -2331.9347      6.526975      -2325.4078     -14242.688    
     31750   156.32358      311.72218     -2332.2682      6.8095599     -2325.4586     -18588.978    
     31800   137.74739      274.6797      -2331.415       6.0003684     -2325.4147     -19513.088    
     31850   160.88121      320.81045     -2332.4149      7.008093      -2325.4068     -19332.298    
     31900   156.46853      312.0112      -2332.2519      6.8158736     -2325.436      -15325.915    
     31950   157.02975      313.13033     -2332.2016      6.8403209     -2325.3613     -17412.361    
     32000   153.57349      306.23826     -2332.0048      6.6897639     -2325.315      -13521.732    
     32050   161.70169      322.44656     -2332.4863      7.0438336     -2325.4425     -18315.473    
     32100   150.06391      299.23986     -2331.9485      6.5368842     -2325.4116     -18598.849    
     32150   151.19784      301.50102     -2331.8998      6.586279      -2325.3135     -15494.391    
     32200   155.52365      310.12705     -2332.1738      6.7747143     -2325.3991     -18465.365    
     32250   153.54068      306.17283     -2331.9548      6.6883345     -2325.2664     -16564.767    
     32300   165.07387      329.17098     -2332.5155      7.1907283     -2325.3247     -13505.188    
     32350   153.98848      307.06579     -2332.007       6.7078412     -2325.2991     -16127.455    
     32400   163.91428      326.85865     -2332.4911      7.1402157     -2325.3509     -17190.58     
     32450   159.19943      317.45685     -2332.2235      6.9348335     -2325.2887     -14082.957    
     32500   149.82393      298.76133     -2331.8483      6.5264306     -2325.3219     -17925.451    
     32550   157.67383      314.41468     -2332.2415      6.8683776     -2325.3731     -16207.444    
     32600   153.60467      306.30044     -2332.0626      6.6911222     -2325.3714     -14390.178    
     32650   154.16139      307.41057     -2332.1298      6.7153731     -2325.4144     -13554.522    
     32700   161.65691      322.35727     -2332.4598      7.0418832     -2325.4179     -16492.252    
     32750   153.42526      305.94268     -2332.1087      6.683307      -2325.4254     -18021.729    
     32800   160.58339      320.21658     -2332.3257      6.9951199     -2325.3306     -12134.392    
     32850   170.95399      340.89641     -2332.7937      7.44687       -2325.3469     -15475.638    
     32900   149.04166      297.20143     -2331.8283      6.4923546     -2325.336      -15706.972    
     32950   145.18204      289.50501     -2331.6335      6.3242266     -2325.3093     -12809.894    
     33000   149.03209      297.18233     -2331.8122      6.4919375     -2325.3203     -18372.716    
     33050   159.8732       318.8004      -2332.254       6.9641833     -2325.2898     -14159.165    
     33100   162.55651      324.15115     -2332.3141      7.0810703     -2325.233      -17289.032    
     33150   152.30309      303.70498     -2331.9099      6.6344245     -2325.2754     -19317.301    
     33200   165.34215      329.70594     -2332.5433      7.2024146     -2325.3408     -17047.159    
     33250   143.6128       286.37582     -2331.4976      6.2558696     -2325.2417     -17585.451    
     33300   164.85755      328.73961     -2332.4806      7.1813051     -2325.2993     -13233.909    
     33350   151.64542      302.39353     -2331.7467      6.6057759     -2325.1409     -19081.648    
     33400   151.64857      302.39981     -2331.763       6.6059131     -2325.157      -18998.949    
     33450   152.23889      303.57695     -2331.8106      6.6316277     -2325.1789     -17019.237    
     33500   161.97824      322.99802     -2332.263       7.0558803     -2325.2071     -20258.164    
     33550   141.38154      281.9265      -2331.3691      6.1586745     -2325.2104     -18523.102    
     33600   147.02979      293.18958     -2331.6456      6.4047159     -2325.2409     -16734.271    
     33650   141.03496      281.2354      -2331.3488      6.1435774     -2325.2052     -18165.363    
     33700   158.57581      316.21331     -2332.1414      6.9076685     -2325.2337     -17898.52     
     33750   147.70432      294.53466     -2331.6926      6.4340992     -2325.2585     -15597.666    
     33800   147.62634      294.37915     -2331.6963      6.4307021     -2325.2656     -19334.302    
     33850   162.76078      324.55849     -2332.3878      7.0899686     -2325.2978     -19181.235    
     33900   156.5289       312.13159     -2332.1364      6.8185035     -2325.3179     -19898.26     
     33950   152.14535      303.39044     -2331.8529      6.6275533     -2325.2253     -19522.346    
     34000   155.48559      310.05116     -2332.0198      6.7730565     -2325.2467     -15406.746    
     34050   153.67248      306.43566     -2331.957       6.6940761     -2325.2629     -19329.019    
     34100   149.46065      298.03693     -2331.7909      6.5106061     -2325.2803     -16833.572    
     34150   156.0398       311.15628     -2332.0942      6.7971979     -2325.297      -15431.76     
     34200   164.05667      327.1426      -2332.4891      7.1464184     -2325.3426     -16516.797    
     34250   154.49615      308.07812     -2332.0062      6.7299556     -2325.2763     -17086.151    
     34300   162.51846      324.07528     -2332.4011      7.0794129     -2325.3217     -14355.538    
     34350   155.96541      311.00795     -2332.1325      6.7939577     -2325.3385     -19884.637    
     34400   154.12012      307.32828     -2332.0794      6.7135753     -2325.3658     -18061.618    
     34450   149.37599      297.86811     -2331.8742      6.5069182     -2325.3673     -18381.025    
     34500   160.30907      319.66956     -2332.3798      6.9831702     -2325.3967     -18282.415    
     34550   151.17893      301.46331     -2332.0066      6.5854553     -2325.4212     -17617.225    
     34600   161.55715      322.15835     -2332.4619      7.0375377     -2325.4244     -13779.847    
[...]
    191150   157.37641      313.82161     -2332.139       6.8554219     -2325.2836     -15443.618    
    191200   161.18788      321.42198     -2332.318       7.0214518     -2325.2966     -16370.025    
    191250   150.70662      300.52148     -2331.9997      6.5648811     -2325.4348     -12516.686    
    191300   153.14592      305.38565     -2332.0289      6.6711388     -2325.3577     -15430.144    
    191350   148.80458      296.72865     -2331.834       6.4820269     -2325.352      -16016.248    
    191400   162.08575      323.21242     -2332.4378      7.0605639     -2325.3773     -16137.044    
    191450   154.25105      307.58937     -2332.1317      6.7192789     -2325.4125     -13890.282    
    191500   177.23264      353.41656     -2333.1227      7.7203723     -2325.4023     -15577.415    
    191550   155.11584      309.31384     -2332.2141      6.7569498     -2325.4571     -13547.58     
    191600   170.29325      339.57885     -2332.8631      7.4180879     -2325.445      -14972.615    
    191650   164.50275      328.0321      -2332.6622      7.1658496     -2325.4964     -15381.312    
    191700   166.55478      332.12404     -2332.7655      7.2552378     -2325.5102     -15668.935    
    191750   150.3446       299.79958     -2331.9446      6.5491111     -2325.3955     -15545.562    
    191800   164.85393      328.73238     -2332.5225      7.1811473     -2325.3413     -14596.874    
    191850   155.35995      309.80062     -2332.1264      6.7675835     -2325.3588     -14461.07     
    191900   163.53229      326.09693     -2332.514       7.1235759     -2325.3904     -14661.709    
    191950   162.29691      323.63348     -2332.4761      7.069762      -2325.4063     -13139.859    
    192000   150.37811      299.8664      -2332.0622      6.5505709     -2325.5116     -17624.833    
    192050   161.04147      321.13003     -2332.3419      7.0150741     -2325.3268     -17875.969    
    192100   165.83289      330.68453     -2332.6714      7.2237917     -2325.4476     -13108.948    
    192150   163.91461      326.85931     -2332.5565      7.1402301     -2325.4163     -14464.145    
    192200   156.1851       311.44603     -2332.3467      6.8035274     -2325.5432     -15560.016    
    192250   159.39385      317.84455     -2332.3148      6.9433028     -2325.3715     -13510.677    
    192300   163.23885      325.51179     -2332.6797      7.1107934     -2325.5689     -15180.408    
    192350   165.07641      329.17604     -2332.5302      7.1908389     -2325.3393     -16614.575    
    192400   168.76761      336.5366      -2332.5811      7.3516302     -2325.2295     -15908.591    
    192450   149.4801       298.07571     -2331.8803      6.5114533     -2325.3688     -13045.892    
    192500   152.12818      303.35619     -2331.9678      6.6268052     -2325.341      -18321.948    
    192550   168.41863      335.84069     -2332.5566      7.336428      -2325.2202     -15749.665    
    192600   159.06805      317.19486     -2332.2313      6.9291104     -2325.3022     -13724.863    
    192650   159.53417      318.12435     -2332.2125      6.9494151     -2325.263      -13655.081    
    192700   169.26923      337.53687     -2332.5689      7.373481      -2325.1954     -13798.221    
    192750   153.28488      305.66275     -2331.8898      6.6771919     -2325.2126     -15581.868    
    192800   154.60482      308.29481     -2332.0809      6.7346893     -2325.3462     -12191.808    
    192850   162.08343      323.20778     -2332.4211      7.0604625     -2325.3606     -13269.648    
    192900   153.90306      306.89546     -2332.0781      6.7041204     -2325.3739     -16243.847    
    192950   163.72752      326.48624     -2332.4958      7.1320803     -2325.3637     -12522.951    
    193000   164.04331      327.11595     -2332.5236      7.1458363     -2325.3778     -13278.517    
    193050   164.58976      328.20562     -2332.5445      7.1696402     -2325.3748     -16006.757    
    193100   167.74722      334.50185     -2332.7214      7.307181      -2325.4142     -13478.251    
    193150   152.70928      304.51496     -2332.021       6.6521185     -2325.3689     -15153.371    
    193200   164.8656       328.75566     -2332.5558      7.1816557     -2325.3741     -14826.212    
    193250   153.76225      306.61467     -2331.8811      6.6979867     -2325.1831     -16175.261    
    193300   191.49105      381.84901     -2333.3821      8.3414782     -2325.0406     -16649.157    
    193350   174.02205      347.01439     -2332.6453      7.580517      -2325.0647     -15581.567    
    193400   162.06455      323.17013     -2332.1766      7.05964       -2325.117      -15813.546    
    193450   165.92016      330.85854     -2332.3901      7.2275931     -2325.1625     -14896.108    
    193500   170.26105      339.51464     -2332.4893      7.4166853     -2325.0726     -14891.717    
    193550   145.76986      290.67718     -2331.4899      6.3498326     -2325.1401     -17290.053    
    193600   158.91988      316.8994      -2332.2217      6.9226562     -2325.299      -16994.352    
    193650   165.18414      329.39087     -2332.5261      7.1955318     -2325.3305     -15594.639    
    193700   167.8248       334.65655     -2332.5745      7.3105604     -2325.2639     -14480.756    
    193750   160.06928      319.19141     -2332.2481      6.9727251     -2325.2754     -16465.934    
    193800   149.07621      297.27032     -2331.7463      6.4938595     -2325.2524     -16220.335    
    193850   169.09675      337.19292     -2332.5519      7.3659673     -2325.1859     -14591.73     
    193900   147.82148      294.76828     -2331.7362      6.4392027     -2325.297      -11721.836    
    193950   158.03212      315.12914     -2332.207       6.8839849     -2325.323      -13828.554    
    194000   165.22252      329.4674      -2332.596       7.1972037     -2325.3988     -13009.192    
    194050   166.99398      332.99983     -2332.6082      7.2743695     -2325.3338     -13933.019    
    194100   156.4563       311.98682     -2332.1583      6.8153411     -2325.343      -11215.183    
    194150   156.66083      312.39467     -2332.1953      6.8242504     -2325.371      -10747.169    
    194200   166.18418      331.38501     -2332.5521      7.2390938     -2325.313      -12614.696    
    194250   173.80157      346.57473     -2332.7788      7.5709126     -2325.2078     -10884.628    
    194300   159.79434      318.64315     -2332.3904      6.9607484     -2325.4297     -16070.845    
    194350   166.86778      332.74817     -2332.7181      7.2688719     -2325.4492     -14029.316    
    194400   157.53258      314.13301     -2332.3232      6.8622245     -2325.461      -11947.716    
    194450   153.70546      306.50141     -2332.2223      6.6955125     -2325.5267     -13284.249    
    194500   166.54276      332.10005     -2332.8864      7.2547139     -2325.6317     -15715.432    
    194550   140.79039      280.7477      -2331.7998      6.1329234     -2325.6669     -11906.029    
    194600   151.17204      301.44956     -2332.1129      6.585155      -2325.5277     -11815.293    
    194650   155.48458      310.04913     -2332.2578      6.7730123     -2325.4848     -11567.782    
    194700   148.54378      296.20861     -2332.073       6.4706666     -2325.6023     -16323.056    
    194750   167.08346      333.17825     -2332.7427      7.2782671     -2325.4645     -15208.673    
    194800   158.94737      316.95423     -2332.4338      6.9238539     -2325.51       -14002.596    
    194850   148.84104      296.80137     -2332.064       6.4836154     -2325.5803     -14423.863    
    194900   153.2297       305.55272     -2332.1828      6.6747884     -2325.508      -15965.967    
    194950   153.27007      305.63322     -2332.192       6.6765468     -2325.5155     -15177.451    
    195000   148.84017      296.79962     -2332.0795      6.4835772     -2325.5959     -14469.186    
    195050   160.89924      320.84642     -2332.5379      7.0088785     -2325.529      -15995.386    
    195100   157.3661       313.80105     -2332.4279      6.8549727     -2325.5729     -13544.186    
    195150   158.34818      315.75938     -2332.4143      6.8977525     -2325.5166     -17989.795    
    195200   163.37773      325.78873     -2332.7046      7.1168432     -2325.5877     -17244.55     
    195250   151.93269      302.96637     -2332.2127      6.6182896     -2325.5944     -17754.198    
    195300   161.70087      322.44493     -2332.6582      7.043798      -2325.6144     -13847.908    
    195350   159.11264      317.28378     -2332.5366      6.9310529     -2325.6056     -16861.798    
    195400   166.35444      331.72453     -2332.7956      7.2465106     -2325.5491     -10261.344    
    195450   172.77984      344.53732     -2333.1195      7.5264055     -2325.5931     -21807.579    
    195500   156.51188      312.09765     -2332.3447      6.817762      -2325.5269     -16005.501    
    195550   153.6845       306.45963     -2332.2084      6.6945997     -2325.5138     -17564.631    
    195600   154.94876      308.98066     -2332.2941      6.7496716     -2325.5444     -13634.055    
    195650   150.56995      300.24896     -2332.1053      6.5589278     -2325.5463     -15796.442    
    195700   154.60803      308.30123     -2332.1976      6.7348294     -2325.4628     -18924.584    
    195750   150.73249      300.57307     -2332.2156      6.566008      -2325.6496     -16277.205    
    195800   158.73045      316.52167     -2332.5339      6.9144046     -2325.6195     -15247.211    
    195850   159.77146      318.59752     -2332.5953      6.9597515     -2325.6355     -15238.843    
    195900   160.0893       319.23132     -2332.7476      6.9735969     -2325.774      -15641.643    
    195950   168.5104       336.02371     -2332.9869      7.3404259     -2325.6464     -13629.965    
    196000   164.61843      328.26278     -2332.6867      7.1708887     -2325.5158     -16257.995    
    196050   164.78129      328.58754     -2332.7974      7.1779832     -2325.6194     -13380.336    
    196100   173.04839      345.07282     -2333.0784      7.5381036     -2325.5403     -15454.769    
    196150   162.24487      323.52971     -2332.7071      7.0674951     -2325.6396     -14462.014    
    196200   161.95546      322.9526      -2332.7832      7.054888      -2325.7283     -13581.661    
    196250   165.61099      330.24203     -2332.9149      7.2141255     -2325.7008     -15716.232    
    196300   148.58802      296.29682     -2332.0906      6.4725934     -2325.618      -15143.581    
    196350   163.46322      325.9592      -2332.7616      7.1205671     -2325.641      -15060.679    
    196400   174.59793      348.16275     -2333.2809      7.6056028     -2325.6753     -13190.198    
    196450   153.80172      306.69338     -2332.4577      6.6997059     -2325.758      -17366.979    
    196500   147.64292      294.41222     -2332.1888      6.4314245     -2325.7574     -14870.129    
    196550   162.35492      323.74916     -2332.8208      7.072289      -2325.7485     -14582.507    
    196600   151.86953      302.84043     -2332.4262      6.6155383     -2325.8107     -16570.351    
    196650   165.49368      330.00811     -2333.0046      7.2090154     -2325.7955     -12804.69     
    196700   162.45851      323.95572     -2332.7257      7.0768012     -2325.6489     -15254.971    
    196750   150.64245      300.39352     -2332.2643      6.5620857     -2325.7022     -17749.047    
    196800   158.35926      315.78149     -2332.6221      6.8982354     -2325.7238     -16168.314    
    196850   157.44499      313.95836     -2332.6577      6.8584092     -2325.7993     -12996.993    
    196900   168.57168      336.14589     -2333.0519      7.343095      -2325.7088     -16692.674    
    196950   159.89252      318.83893     -2332.8301      6.9650251     -2325.8651     -12399.752    
    197000   155.83731      310.75251     -2332.6557      6.7883775     -2325.8674     -15564.894    
    197050   153.95507      306.99917     -2332.3612      6.706386      -2325.6548     -15314.86     
    197100   155.74357      310.56558     -2332.7048      6.7842942     -2325.9205     -13138.481    
    197150   161.79188      322.62641     -2332.7516      7.0477626     -2325.7038     -13173.892    
    197200   165.83486      330.68844     -2333.074       7.2238773     -2325.8501     -14703.53     
    197250   164.79403      328.61295     -2333.0135      7.1785382     -2325.835      -14907.595    
    197300   166.25297      331.5222      -2333.0898      7.2420907     -2325.8477     -18347.514    
    197350   152.23119      303.56161     -2332.5318      6.6312926     -2325.9005     -16535.654    
    197400   161.68382      322.41093     -2332.8501      7.0430553     -2325.8071     -16199.437    
    197450   153.81454      306.71894     -2332.5299      6.7002643     -2325.8296     -17142.219    
    197500   144.64341      288.43094     -2332.1         6.3007637     -2325.7993     -15205.343    
    197550   149.29586      297.70831     -2332.2142      6.5034274     -2325.7108     -16235.519    
    197600   147.58058      294.2879      -2332.1676      6.4287088     -2325.7389     -14391.796    
    197650   151.67523      302.45297     -2332.3516      6.6070743     -2325.7445     -16826.841    
    197700   156.40024      311.87503     -2332.6102      6.8128991     -2325.7973     -17820.74     
    197750   169.69015      338.37622     -2333.1321      7.3918164     -2325.7402     -12564.231    
    197800   159.01672      317.09252     -2332.7448      6.9268748     -2325.8179     -15263.724    
    197850   152.38435      303.86703     -2332.5234      6.6379644     -2325.8854     -14313.389    
    197900   147.2185       293.56589     -2332.3098      6.4129363     -2325.8968     -16412.37     
    197950   162.61117      324.26015     -2333.0796      7.0834514     -2325.9962     -17202.22     
    198000   157.41474      313.89803     -2332.6457      6.8570914     -2325.7886     -13598.294    
    198050   140.8156       280.79798     -2332.0129      6.1340219     -2325.8788     -15005.432    
    198100   153.67247      306.43563     -2332.5583      6.6940755     -2325.8642     -15654.505    
    198150   164.19868      327.42577     -2333.0286      7.1526044     -2325.876      -15091.666    
    198200   152.72965      304.55557     -2332.5484      6.6530055     -2325.8954     -15708.347    
    198250   161.5809       322.20569     -2332.9853      7.0385719     -2325.9467     -14765.728    
    198300   143.50138      286.15363     -2332.2484      6.251016      -2325.9974     -12508.222    
    198350   169.48757      337.97226     -2333.2955      7.382992      -2325.9126     -14685.973    
    198400   150.40414      299.91832     -2332.418       6.5517051     -2325.8663     -15515.209    
    198450   145.72006      290.57786     -2332.2576      6.3476631     -2325.9099     -13365.507    
    198500   147.31196      293.75226     -2332.3598      6.4170077     -2325.9428     -15696.313    
    198550   158.47165      316.0056      -2332.8083      6.9031312     -2325.9051     -15369.518    
    198600   148.04374      295.21148     -2332.41        6.4488844     -2325.9611     -18291.576    
    198650   166.69263      332.39891     -2333.2147      7.2612424     -2325.9535     -15200.075    
    198700   165.8664       330.75134     -2333.105       7.2252512     -2325.8798     -16246.599    
    198750   143.57029      286.29104     -2332.0988      6.2540177     -2325.8448     -14576.816    
    198800   156.21052      311.49671     -2332.7096      6.8046345     -2325.905      -16308.626    
    198850   147.48432      294.09595     -2332.3185      6.4245155     -2325.894      -12969.359    
    198900   152.06384      303.2279      -2332.5854      6.6240027     -2325.9614     -16959.235    
    198950   150.32618      299.76286     -2332.5399      6.548309      -2325.9916     -17293.291    
    199000   148.8288       296.77697     -2332.3955      6.4830823     -2325.9124     -15093.343    
    199050   148.40225      295.92639     -2332.4512      6.4645014     -2325.9867     -16974.618    
    199100   148.83285      296.78504     -2332.4409      6.4832586     -2325.9576     -16078.538    
    199150   141.74543      282.65213     -2332.1291      6.1745258     -2325.9545     -14970.536    
    199200   144.64149      288.42711     -2332.3087      6.30068       -2326.008      -19139.518    
    199250   161.16149      321.36936     -2332.9987      7.0203022     -2325.9784     -15413.125    
    199300   156.62109      312.31543     -2332.7952      6.8225194     -2325.9727     -16239.198    
    199350   152.2308       303.56084     -2332.5854      6.6312757     -2325.9541     -15176.11     
    199400   147.89803      294.92091     -2332.4266      6.4425369     -2325.9841     -16050.404    
    199450   140.75179      280.67072     -2332.0915      6.131242      -2325.9603     -15394.861    
    199500   130.04006      259.31065     -2331.579       5.664632      -2325.9144     -15946.365    
    199550   159.26812      317.59383     -2332.746       6.9378259     -2325.8082     -14403.784    
    199600   151.03302      301.17235     -2332.548       6.5790992     -2325.9689     -14491.659    
    199650   146.35229      291.8386      -2332.3123      6.3752038     -2325.9371     -16462.756    
    199700   144.08723      287.32186     -2332.2567      6.2765359     -2325.9802     -15956.171    
    199750   143.82758      286.8041      -2332.2942      6.2652255     -2326.029      -15004.071    
    199800   156.27189      311.61908     -2332.7072      6.8073078     -2325.8999     -16054.822    
    199850   152.01014      303.12081     -2332.5161      6.6216634     -2325.8944     -15232.167    
    199900   150.74413      300.59629     -2332.4641      6.5665153     -2325.8976     -16143.3      
    199950   146.00444      291.14496     -2332.466       6.3600512     -2326.1059     -14761.705    
    200000   162.64671      324.33102     -2332.9336      7.0849997     -2325.8486     -18806.582    
colvars: Saving collective variables state to "out.colvars.state".
colvars:   Writing TI PMF to file "out.metadynamics1.ti.pmf".
Loop time of 982.2 on 4 procs for 200000 steps with 338 atoms

Performance: 8.797 ns/day, 2.728 hours/ns, 203.625 timesteps/s, 68.825 katom-step/s
138.8% CPU use with 4 MPI tasks x 1 OpenMP threads

MPI task timing breakdown:
Section |  min time  |  avg time  |  max time  |%varavg| %total
---------------------------------------------------------------
Pair    | 820.3      | 893.7      | 941.35     | 156.9 | 90.99
Neigh   | 0.12654    | 1.5046     | 2.5455     |  74.8 |  0.15
Comm    | 13.858     | 56.446     | 132.46     | 611.5 |  5.75
Output  | 4.4928     | 5.2921     | 6.204      |  34.1 |  0.54
Modify  | 16.911     | 22.669     | 35.271     | 157.8 |  2.31
Other   |            | 2.582      |            |       |  0.26

Nlocal:           84.5 ave         123 max           5 min
Histogram: 1 0 0 0 0 0 0 1 0 2
Nghost:           1153 ave        1671 max         665 min
Histogram: 1 0 0 1 0 1 0 0 0 1
Neighs:              0 ave           0 max           0 min
Histogram: 4 0 0 0 0 0 0 0 0 0
FullNghs:        15135 ave       24785 max         487 min
Histogram: 1 0 0 0 0 1 0 0 1 1

Total # of neighbors = 60540
Ave neighs/atom = 179.11243
Neighbor list builds = 2638
Dangerous builds = 0
System init for write_data ...
Generated 0 of 6 mixed pair_coeff terms from geometric mixing rule

CITE-CITE-CITE-CITE-CITE-CITE-CITE-CITE-CITE-CITE-CITE-CITE-CITE

Your simulation uses code contributions which should be cited:
- Colvars module (Fiorin2013, plus other works listed for specific features)
The log file lists these citations in BibTeX format.

CITE-CITE-CITE-CITE-CITE-CITE-CITE-CITE-CITE-CITE-CITE-CITE-CITE

Total wall time: 0:16:44
