LAMMPS (2 Aug 2023)
OMP_NUM_THREADS environment is not set. Defaulting to 1 thread. (src/comm.cpp:98)
  using 1 OpenMP thread(s) per MPI task
Loaded 1 plugins from /work/home/baoergen22b/apprepo/deepmd/v2.2.9-dtk23.10/app/lib/deepmd_lmp
Reading data file ...
  orthogonal box = (0 0 0) to (11.328 12.015 32)
  1 by 1 by 4 MPI processor grid
  reading atoms ...
  338 atoms
  read_data CPU = 0.043 seconds
Summary of lammps deepmd module ...
  >>> Info of deepmd-kit:
  installed to:       /work/home/wys974137909/shangcheng/deepmd-kit/20240715/deepmd-kit_v2.2.9/install
  source:             v2.2.9
  source branch:      HEAD
  source commit:      be43748
  source commit at:   2024-02-04 13:44:12 +0800
  support model ver.: 1.1 
  build variant:      rocm
  build with tf inc:  /work/home/wys974137909/shangcheng/miniconda3/envs/deepmd-kit-v2.2.9/lib/python3.8/site-packages/tensorflow/include;/work/home/wys974137909/shangcheng/miniconda3/envs/deepmd-kit-v2.2.9/lib/python3.8/site-packages/tensorflow/include
  build with tf lib:  /work/home/wys974137909/shangcheng/miniconda3/envs/deepmd-kit-v2.2.9/lib/python3.8/site-packages/tensorflow/lib/libtensorflow_cc.so
  set tf intra_op_parallelism_threads: 0
  set tf inter_op_parallelism_threads: 0
  >>> Info of lammps module:
  use deepmd-kit at:  /work/home/wys974137909/shangcheng/deepmd-kit/20240715/deepmd-kit_v2.2.9/install
  source:             v2.2.9
  source branch:      HEAD
  source commit:      be43748
  source commit at:   2024-02-04 13:44:12 +0800
  build float prec:   double
  build with tf inc:  /work/home/wys974137909/shangcheng/miniconda3/envs/deepmd-kit-v2.2.9/lib/python3.8/site-packages/tensorflow/include;/work/home/wys974137909/shangcheng/miniconda3/envs/deepmd-kit-v2.2.9/lib/python3.8/site-packages/tensorflow/include
  build with tf lib:  /work/home/wys974137909/shangcheng/miniconda3/envs/deepmd-kit-v2.2.9/lib/python3.8/site-packages/tensorflow/lib/libtensorflow_cc.so
INVALID_ARGUMENT: Tensor spin_attr/ntypes_spin:0, specified in either feed_devices or fetch_devices was not found in the Graph
INVALID_ARGUMENT: Tensor spin_attr/ntypes_spin:0, specified in either feed_devices or fetch_devices was not found in the Graph
INVALID_ARGUMENT: Tensor spin_attr/ntypes_spin:0, specified in either feed_devices or fetch_devices was not found in the Graph
INVALID_ARGUMENT: Tensor spin_attr/ntypes_spin:0, specified in either feed_devices or fetch_devices was not found in the Graph
  >>> Info of model(s):
  using   1 model(s): graph-compress.pb 
  rcut in model:      6
  ntypes in model:    4
168 atoms in group fixed
170 atoms in group mobile

CITE-CITE-CITE-CITE-CITE-CITE-CITE-CITE-CITE-CITE-CITE-CITE-CITE

Your simulation uses code contributions which should be cited:
- GPU package (short-range, long-range and three-body potentials): doi:10.1016/j.cpc.2010.12.021, doi:10.1016/j.cpc.2011.10.012, doi:10.1016/j.cpc.2013.08.002, doi:10.1016/j.commatsci.2014.10.068, doi:10.1016/j.cpc.2016.10.020, doi:10.3233/APC200086
- USER-DEEPMD package:
The log file lists these citations in BibTeX format.

CITE-CITE-CITE-CITE-CITE-CITE-CITE-CITE-CITE-CITE-CITE-CITE-CITE

Generated 0 of 6 mixed pair_coeff terms from geometric mixing rule
Neighbor list info ...
  update: every = 1 steps, delay = 0 steps, check = yes
  max neighbors/atom: 2000, page size: 100000
  master list distance cutoff = 8
  ghost atom cutoff = 8
  binsize = 4, bins = 3 4 8
  1 neighbor lists, perpetual/occasional/extra = 1 0 0
  (1) pair deepmd, perpetual
      attributes: full, newton on
      pair build: full/bin/atomonly
      stencil: full/bin/3d
      bin: standard
Setting up Verlet run ...
  Unit style    : metal
  Current step  : 0
  Time step     : 0.0005
colvars: Creating proxy instance
colvars: ----------------------------------------------------------------------
colvars: Initializing the collective variables module, version 2023-05-01.
colvars: Please cite Fiorin et al, Mol Phys 2013:
colvars:   https://doi.org/10.1080/00268976.2013.813594
colvars: as well as all other papers listed below for individual features used.
colvars: This version was built with the C++11 standard or higher.
colvars: Using LAMMPS interface, version "2023-04-12".
colvars: ----------------------------------------------------------------------
colvars: Reading new configuration from file "pmf.in":
colvars: # units = "" [default]
colvars: # smp = on [default]
colvars: # colvarsTrajFrequency = 100 [default]
colvars: # colvarsRestartFrequency = 0 [default]
colvars: # scriptedColvarForces = off [default]
colvars: # scriptingAfterBiases = off [default]
colvars: ----------------------------------------------------------------------
colvars:   Initializing a new collective variable.
colvars:   # name = "d"
colvars:   Initializing a new "distanceZ" component.
colvars:     # name = "" [default]
colvars:     # componentCoeff = 1 [default]
colvars:     # componentExp = 1 [default]
colvars:     # period = 0 [default]
colvars:     # wrapAround = 0 [default]
colvars:     # forceNoPBC = off [default]
colvars:     # scalable = on [default]
colvars:       Initializing atom group "main".
colvars:       # name = "" [default]
colvars:       # centerToOrigin = off [default]
colvars:       # centerToReference = off [default]
colvars:       # rotateToReference = off [default]
colvars:       # atomsOfGroup = "" [default]
colvars:       # indexGroup = "" [default]
colvars:       # psfSegID =  [default]
colvars:       # atomsFile = "" [default]
colvars:       # dummyAtom = ( 0 , 0 , 0 ) [default]
colvars:       # enableFitGradients = on [default]
colvars:       # printAtomIDs = off [default]
colvars:       Atom group "main" defined with 1 atoms requested.
colvars:       Initializing atom group "ref".
colvars:       # name = "" [default]
colvars:       # centerToOrigin = off [default]
colvars:       # centerToReference = off [default]
colvars:       # rotateToReference = off [default]
colvars:       # atomsOfGroup = "" [default]
colvars:       # indexGroup = "" [default]
colvars:       # psfSegID =  [default]
colvars:       # atomsFile = "" [default]
colvars:       # dummyAtom = ( 0 , 0 , 0 ) [default]
colvars:       # enableFitGradients = on [default]
colvars:       # printAtomIDs = off [default]
colvars:       Atom group "ref" defined with 23 atoms requested.
colvars:     # axis = ( 0 , 0 , 1 ) [default]
colvars:     # oneSiteSystemForce = off [default]
colvars:     # oneSiteTotalForce = off [default]
colvars:   All components initialized.
colvars:   # timeStepFactor = 1 [default]
colvars:   # width = 0.05
colvars:   # lowerBoundary = 0.8
colvars:   # upperBoundary = 6.5
colvars:   # hardLowerBoundary = on
colvars:   # hardUpperBoundary = off [default]
colvars:   # expandBoundaries = off [default]
colvars:   # extendedLagrangian = off [default]
colvars:   # outputValue = on [default]
colvars:   # outputVelocity = off [default]
colvars:   # outputTotalForce = on
colvars:   # outputAppliedForce = on
colvars:   # subtractAppliedForce = off [default]
colvars:   # runAve = off [default]
colvars:   # corrFunc = off [default]
colvars: ----------------------------------------------------------------------
colvars: Collective variables initialized, 1 in total.
colvars: ----------------------------------------------------------------------
colvars:   Initializing a new "metadynamics" instance.
colvars:   # name = "metadynamics1" [default]
colvars:   # colvars = { d }
colvars:   # stepZeroData = off [default]
colvars:   # outputEnergy = off [default]
colvars:   # outputFreq = 0 [default]
colvars:   # timeStepFactor = 1 [default]
colvars:   # writeTISamples = on
colvars:   # writeTIPMF = on
colvars:   # hillWeight = 0.2
colvars:   # newHillFrequency = 300
colvars:   # gaussianSigmas =  [default]
colvars:   # hillWidth = 1
colvars:   Half-widths of the Gaussian hills (sigma's):
colvars:   d: 0.025
colvars:   # multipleReplicas = off [default]
colvars:   # useGrids = on [default]
colvars:   # gridsUpdateFrequency = 300 [default]
colvars:   # rebinGrids = off [default]
colvars:   # writeFreeEnergyFile = on [default]
colvars:   # keepHills = off [default]
colvars:   # keepFreeEnergyFiles = off [default]
colvars:   # writeHillsTrajectory = off [default]
colvars:   # wellTempered = off [default]
colvars:   # biasTemperature = 800
colvars:   # ebMeta = off [default]
colvars: ----------------------------------------------------------------------
colvars: Collective variables biases initialized, 1 in total.
colvars: ----------------------------------------------------------------------
colvars: Collective variables module (re)initialized.
colvars: ----------------------------------------------------------------------
colvars: Re-initialized atom group for variable "d":0/0. 1 atoms: total mass = 1.008, total charge = 4.6684e-310.
colvars: Re-initialized atom group for variable "d":0/1. 23 atoms: total mass = 1284.44, total charge = 2.26014e-80.
colvars: The restart output state file will be "rest.colvars.state".
colvars: The final output state file will be "out.colvars.state".
Per MPI rank memory allocation (min/avg/max) = 3.129 | 3.153 | 3.169 Mbytes
   Step          Temp         c_mTemp         PotEng         KinEng         TotEng         Press     
         0   149.51736      298.15        -2331.8522      6.5130762     -2325.3391     -18112.572    
        50   141.4112       281.98565     -2331.4961      6.1599665     -2325.3362     -17618.644    
       100   147.6388       294.40399     -2331.7733      6.4312447     -2325.342      -15114.222    
       150   147.20998      293.54889     -2331.7498      6.4125651     -2325.3372     -15322.234    
       200   158.84992      316.75991     -2332.2612      6.9196089     -2325.3416     -20212.131    
       250   150.57158      300.25221     -2331.8984      6.5589988     -2325.3394     -18041.706    
       300   157.97762      315.02046     -2332.206       6.8816108     -2325.3244     -18871.392    
       350   150.75891      300.62575     -2331.6423      6.5671587     -2325.0751     -16465.054    
       400   161.93804      322.91787     -2331.9961      7.0541294     -2324.942      -17982.031    
       450   147.55355      294.234       -2331.3869      6.4275314     -2324.9593     -17591.649    
       500   144.57403      288.29259     -2331.3844      6.2977415     -2325.0866     -17357.772    
       550   142.0888       283.33683     -2331.327       6.189483      -2325.1375     -16446.223    
       600   152.50073      304.09908     -2331.4037      6.6430336     -2324.7606     -18008.455    
       650   164.71883      328.46299     -2331.9322      7.1752624     -2324.7569     -16572.52     
       700   148.15088      295.42512     -2331.1986      6.4535512     -2324.745      -12017.738    
       750   148.42292      295.96759     -2331.487       6.4654015     -2325.0216     -19304.265    
       800   148.01227      295.14872     -2331.29        6.4475134     -2324.8425     -16744.494    
       850   144.53879      288.22232     -2331.1015      6.2962063     -2324.8053     -17815.437    
       900   137.10651      273.40174     -2330.7782      5.9724513     -2324.8058     -17442.311    
       950   141.08021      281.32563     -2330.7477      6.1455483     -2324.6022     -16350.881    
      1000   165.91692      330.85207     -2331.9602      7.2274518     -2324.7327     -17844.958    
      1050   170.37455      339.74097     -2331.9841      7.4216294     -2324.5624     -16843.946    
      1100   163.74         326.51113     -2331.7184      7.132624      -2324.5858     -16234.652    
      1150   162.10552      323.25184     -2331.766       7.0614249     -2324.7046     -17303.374    
      1200   141.77692      282.71493     -2331.1318      6.1758976     -2324.9559     -14247.815    
      1250   159.93303      318.9197      -2331.7361      6.9667895     -2324.7693     -16780.109    
      1300   160.26146      319.57462     -2331.6742      6.9810963     -2324.6931     -15413.064    
      1350   151.64452      302.39174     -2331.279       6.6057368     -2324.6732     -17401.788    
      1400   157.71109      314.48897     -2331.5022      6.8700005     -2324.6322     -18650.313    
      1450   157.39492      313.85852     -2331.537       6.8562282     -2324.6808     -15842.673    
      1500   161.19504      321.43625     -2331.7365      7.0217636     -2324.7147     -13326.613    
      1550   162.69337      324.42406     -2331.681       7.0870321     -2324.5939     -14819.037    
      1600   147.13148      293.39236     -2330.8526      6.4091456     -2324.4435     -17467.319    
      1650   153.21668      305.52675     -2331.2797      6.674221      -2324.6055     -15081.731    
      1700   162.92256      324.88108     -2331.4165      7.0970156     -2324.3195     -16117.029    
      1750   145.66777      290.4736      -2330.782       6.3453854     -2324.4366     -16080.145    
      1800   167.06343      333.13833     -2331.5729      7.2773949     -2324.2955     -18367.676    
      1850   168.78336      336.56799     -2331.4914      7.3523159     -2324.139      -13323.108    
      1900   183.65502      366.22332     -2331.7223      8.0001355     -2323.7222     -17075.062    
      1950   168.20519      335.41509     -2331.3199      7.3271307     -2323.9927     -18334.956    
      2000   160.59935      320.2484      -2330.8625      6.995815      -2323.8667     -15743.92     
      2050   164.33939      327.70636     -2331.3368      7.1587338     -2324.1781     -14587.269    
      2100   171.15358      341.29442     -2331.3439      7.4555646     -2323.8884     -20543.324    
      2150   170.30552      339.60332     -2331.3096      7.4186225     -2323.891      -16600.063    
      2200   166.62827      332.27057     -2331.2841      7.2584387     -2324.0257     -17018.999    
      2250   155.50855      310.09692     -2330.8987      6.7740563     -2324.1246     -17255.234    
      2300   167.77315      334.55356     -2331.2926      7.3083107     -2323.9843     -17641.286    
      2350   181.73469      362.39403     -2331.5656      7.9164848     -2323.6491     -17252.048    
      2400   166.05689      331.1312      -2331.1848      7.2335494     -2323.9512     -18453.392    
      2450   166.72609      332.46563     -2331.0633      7.2626999     -2323.8006     -16640.553    
      2500   158.53597      316.13385     -2330.7116      6.9059328     -2323.8057     -18136.844    
      2550   164.67218      328.36997     -2331.0115      7.1732304     -2323.8382     -17793.093    
      2600   148.26365      295.65        -2330.2921      6.4584638     -2323.8336     -15259.706    
      2650   141.02997      281.22544     -2330.2735      6.1433597     -2324.1302     -19826.852    
      2700   184.52912      367.96635     -2331.9917      8.0382119     -2323.9535     -16403.299    
      2750   174.09989      347.16961     -2331.0711      7.5839078     -2323.4872     -19125.791    
      2800   176.93569      352.82442     -2331.6032      7.707437      -2323.8958     -15717.372    
      2850   186.13544      371.16949     -2331.6512      8.1081844     -2323.543      -17198.016    
      2900   156.31159      311.69825     -2330.4557      6.8090372     -2323.6466     -14835.495    
      2950   165.31412      329.65005     -2330.9863      7.2011937     -2323.7851     -17479.615    
      3000   167.54888      334.10635     -2331.0151      7.2985413     -2323.7165     -16840.034    
      3050   173.29261      345.55982     -2330.6968      7.5487419     -2323.148      -16341.577    
      3100   170.87117      340.73128     -2331.3394      7.4432627     -2323.8961     -15347.241    
      3150   156.97361      313.01837     -2330.8049      6.8378752     -2323.9671     -18945.107    
      3200   160.85834      320.76485     -2330.9843      7.0070967     -2323.9772     -19228.14     
      3250   168.32041      335.64483     -2331.484       7.3321494     -2324.1518     -16884.037    
      3300   156.24068      311.55685     -2330.9044      6.8059484     -2324.0984     -16402.515    
      3350   179.84768      358.63117     -2331.4641      7.8342852     -2323.6298     -17015.281    
      3400   187.96654      374.82084     -2332.003       8.187948      -2323.815      -18856.644    
      3450   167.00542      333.02264     -2331.1554      7.2748678     -2323.8805     -14732.553    
      3500   174.6702       348.30685     -2331.5342      7.6087509     -2323.9255     -17421.914    
      3550   168.06623      335.13799     -2331.2602      7.3210774     -2323.9392     -16674.394    
      3600   170.66556      340.32127     -2331.3719      7.434306      -2323.9376     -17951.402    
      3650   181.63514      362.19552     -2331.6467      7.9121482     -2323.7346     -14312.233    
      3700   163.15828      325.35113     -2331.1503      7.1072839     -2324.043      -16936.906    
      3750   169.56453      338.12573     -2331.3491      7.3863445     -2323.9627     -16997.592    
      3800   163.84168      326.71387     -2331.2714      7.137053      -2324.1344     -16638.49     
      3850   169.56766      338.13196     -2331.5437      7.3864807     -2324.1572     -15571.714    
      3900   172.25984      343.50038     -2331.587       7.5037536     -2324.0832     -14520.447    
      3950   167.2592       333.5287      -2331.2888      7.2859225     -2324.0029     -17843.363    
      4000   157.20088      313.47158     -2330.7505      6.8477755     -2323.9027     -18447.212    
      4050   181.41494      361.75642     -2331.6543      7.9025562     -2323.7518     -16164.401    
      4100   147.46834      294.06408     -2330.0148      6.4238194     -2323.591      -16323.512    
      4150   157.35903      313.78695     -2329.7658      6.8546647     -2322.9111     -17672.537    
      4200   175.74975      350.45956     -2328.8857      7.6557768     -2321.2299     -16156.765    
      4250   179.50584      357.94951     -2327.9243      7.8193944     -2320.1049     -18382.082    
      4300   199.68403      398.18651     -2328.8307      8.6983701     -2320.1323     -15989.909    
      4350   176.70291      352.36024     -2327.8535      7.6972969     -2320.1562     -16227.431    
      4400   188.43782      375.76062     -2328.3846      8.2084774     -2320.1761     -17854.49     
      4450   196.11039      391.06037     -2328.7616      8.5426999     -2320.2189     -13988.02     
      4500   182.96999      364.85732     -2328.2295      7.9702951     -2320.2592     -14003.404    
      4550   186.80978      372.51418     -2328.2511      8.1375591     -2320.1135     -15397.828    
      4600   188.84573      376.57403     -2328.3743      8.2262462     -2320.1481     -14727.14     
      4650   199.11257      397.04696     -2328.8582      8.6734767     -2320.1847     -17435.632    
      4700   198.65711      396.13872     -2328.8788      8.6536364     -2320.2251     -15967.818    
      4750   200.97389      400.75859     -2329.0363      8.7545572     -2320.2817     -14462.604    
      4800   204.5262       407.84219     -2329.2358      8.9092981     -2320.3265     -15998.228    
      4850   198.16031      395.14807     -2328.8932      8.6319956     -2320.2612     -18399.84     
      4900   189.85154      378.57971     -2328.577       8.2700602     -2320.307      -13816.491    
      4950   199.15442      397.13042     -2329.02        8.6752999     -2320.3447     -16573.099    
      5000   176.52485      352.00518     -2328.0679      7.6895406     -2320.3783     -17040.873    
      5050   186.79867      372.49203     -2328.5663      8.1370751     -2320.4293     -16053.104    
      5100   203.44389      405.68398     -2329.3495      8.8621521     -2320.4873     -15903.827    
      5150   210.35669      419.46866     -2329.3589      9.163278      -2320.1956     -14768.759    
      5200   218.39645      435.50062     -2329.8773      9.5134955     -2320.3638     -14723.174    
      5250   213.85009      426.4348      -2329.6189      9.3154532     -2320.3034     -15273.233    
      5300   197.57116      393.97325     -2328.9785      8.6063317     -2320.3721     -15835.577    
      5350   206.85747      412.49093     -2329.5371      9.0108497     -2320.5263     -15410.211    
      5400   203.95766      406.70847     -2329.4531      8.8845321     -2320.5686     -14255.203    
      5450   189.52162      377.9218      -2328.7575      8.2556884     -2320.5018     -13887.023    
      5500   198.97557      396.77376     -2329.2416      8.6675088     -2320.5741     -17080.63     
      5550   193.18792      385.23271     -2329.1363      8.4153949     -2320.7209     -16065.471    
      5600   195.33575      389.51567     -2329.163       8.5089559     -2320.654      -13388.813    
      5650   195.95574      390.75198     -2329.2719      8.5359632     -2320.736      -14549.612    
      5700   201.81683      402.43948     -2329.616       8.7912762     -2320.8247     -16884.659    
      5750   186.52528      371.94685     -2328.8456      8.1251658     -2320.7204     -11789.741    
      5800   190.4262       379.72562     -2329.0764      8.2950927     -2320.7813     -17240.235    
      5850   194.88182      388.6105      -2329.3308      8.4891825     -2320.8416     -16002.931    
      5900   196.27987      391.39831     -2329.4561      8.5500822     -2320.906      -15076.064    
      5950   166.82806      332.66897     -2328.2273      7.2671419     -2320.9602     -16455.301    
      6000   175.39261      349.7474      -2328.6309      7.6402195     -2320.9907     -16537.21     
      6050   179.25518      357.44969     -2328.8507      7.8084757     -2321.0422     -15388.372    
      6100   191.35767      381.58305     -2329.447       8.3356682     -2321.1113     -17430.304    
      6150   182.54381      364.00749     -2328.9267      7.9517307     -2320.975      -17222.779    
      6200   180.36696      359.66666     -2328.912       7.8569055     -2321.0551     -16248.472    
      6250   186.92669      372.7473      -2329.1561      8.1426515     -2321.0135     -17378.701    
      6300   183.92314      366.75797     -2329.0857      8.0118149     -2321.0739     -16166.065    
      6350   173.67947      346.33125     -2328.5922      7.5655939     -2321.0266     -12892.197    
      6400   179.3645       357.66768     -2328.8991      7.8132377     -2321.0858     -19005.543    
      6450   191.14038      381.14976     -2329.4386      8.3262029     -2321.1124     -14207.706    
      6500   191.48474      381.83644     -2329.4828      8.3412035     -2321.1416     -18840.046    
      6550   190.44076      379.75465     -2329.5788      8.2957268     -2321.2831     -19319.49     
      6600   200.02824      398.87287     -2330.0173      8.7133637     -2321.304      -16857.798    
      6650   209.05889      416.88074     -2330.2499      9.106745      -2321.1431     -15175.983    
      6700   196.15858      391.15646     -2329.5486      8.544799      -2321.0038     -18026.635    
      6750   217.01685      432.74957     -2330.3759      9.453399      -2320.9225     -14771.426    
      6800   191.90743      382.67932     -2329.3083      8.3596162     -2320.9487     -13930.086    
      6850   182.27548      363.47242     -2328.9276      7.940042      -2320.9875     -15863.92     
      6900   191.65294      382.17183     -2329.4637      8.3485301     -2321.1152     -12074.914    
      6950   198.32525      395.47697     -2329.8771      8.6391805     -2321.238      -15727.568    
      7000   204.36574      407.52221     -2330.1283      8.9023083     -2321.226      -14616.338    
      7050   196.28498      391.40851     -2329.7287      8.5503051     -2321.1784     -17500.341    
      7100   174.87885      348.72292     -2328.9431      7.6178397     -2321.3253     -14915.907    
      7150   195.67007      390.18234     -2329.9489      8.5235193     -2321.4254     -14501.863    
      7200   184.09812      367.10691     -2329.4061      8.0194374     -2321.3867     -16345.843    
      7250   189.22526      377.33084     -2329.3091      8.2427788     -2321.0664     -16932.882    
      7300   199.77993      398.37773     -2329.9221      8.7025473     -2321.2196     -16854.543    
      7350   192.57805      384.01659     -2329.7165      8.3888289     -2321.3276     -17790.843    
      7400   212.38089      423.5051      -2330.3352      9.2514538     -2321.0838     -17150.047    
      7450   194.554        387.95679     -2329.6478      8.4749022     -2321.1729     -16349.278    
      7500   201.64082      402.0885      -2329.8738      8.7836089     -2321.0902     -15133.259    
      7550   209.12677      417.01609     -2329.3163      9.1097018     -2320.2066     -18005.253    
      7600   217.58268      433.8779      -2329.7198      9.4780473     -2320.2417     -17073.255    
      7650   206.17333      411.1267      -2329.6903      8.9810482     -2320.7092     -16265.81     
      7700   211.75614      422.25929     -2329.8257      9.2242392     -2320.6014     -13487.409    
      7750   184.25561      367.42096     -2328.698       8.0262978     -2320.6717     -15428.295    
      7800   195.10002      389.0456      -2329.3429      8.4986873     -2320.8442     -16792.187    
      7850   216.98756      432.69118     -2330.1972      9.4521234     -2320.7451     -18510.346    
      7900   205.84568      410.47334     -2329.7354      8.9667755     -2320.7686     -17732.618    
      7950   206.52206      411.8221      -2329.836       8.9962391     -2320.8398     -15893.021    
      8000   200.62609      400.06505     -2329.6532      8.7394069     -2320.9138     -19143.08     
      8050   183.42911      365.77283     -2328.9835      7.9902946     -2320.9932     -16295.627    
      8100   192.03376      382.93122     -2329.2727      8.365119      -2320.9075     -16514.677    
      8150   209.18721      417.13663     -2329.947       9.1123348     -2320.8346     -15017.375    
      8200   212.82607      424.39281     -2330.1895      9.2708459     -2320.9187     -17763.19     
      8250   196.82776      392.49085     -2329.7565      8.5739487     -2321.1825     -19194.973    
      8300   199.88691      398.59106     -2329.8092      8.7072075     -2321.1019     -14490.969    
      8350   190.67442      380.2206      -2329.3867      8.3059054     -2321.0808     -19585.198    
      8400   199.69954      398.21743     -2329.7212      8.6990456     -2321.0221     -17982.053    
      8450   188.19205      375.27054     -2329.1893      8.1977717     -2320.9915     -15003.233    
      8500   207.03576      412.84646     -2329.9422      9.0186162     -2320.9236     -16771.982    
      8550   182.25173      363.42505     -2328.9284      7.9390074     -2320.9894     -16519.159    
      8600   189.30431      377.48848     -2329.3067      8.2462224     -2321.0605     -15852.24     
      8650   197.57378      393.97848     -2329.7442      8.6064458     -2321.1377     -12990.196    
      8700   196.87345      392.58196     -2329.7726      8.575939      -2321.1966     -17774.023    
      8750   196.37333      391.5847      -2329.6981      8.5541538     -2321.144      -17462.247    
      8800   197.93579      394.70036     -2329.839       8.6222153     -2321.2167     -17199.799    
      8850   201.70314      402.21278     -2330.1842      8.7863239     -2321.3979     -17000.929    
      8900   189.60796      378.09398     -2329.6555      8.2594496     -2321.396      -14748.316    
      8950   182.70197      364.32287     -2329.4225      7.9586201     -2321.4639     -14663.477    
      9000   177.59682      354.14278     -2329.2684      7.7362364     -2321.5322     -15315.778    
      9050   187.74805      374.38516     -2329.6666      8.1784306     -2321.4882     -15513.749    
      9100   187.2059       373.30407     -2329.7013      8.1548141     -2321.5465     -18200.618    
      9150   194.80548      388.45827     -2330.1074      8.4858571     -2321.6216     -15430.506    
      9200   179.1862       357.31213     -2329.4911      7.8054707     -2321.6856     -16721.418    
      9250   189.08016      377.04151     -2329.9869      8.2364583     -2321.7505     -12839.912    
      9300   176.37193      351.70024     -2329.5081      7.6828794     -2321.8252     -15910.452    
      9350   179.23795      357.41532     -2329.6         7.807725      -2321.7923     -13851.089    
      9400   184.32014      367.54963     -2329.8935      8.0291086     -2321.8644     -15212.312    
      9450   178.68618      356.31504     -2329.7289      7.7836893     -2321.9452     -15615.516    
      9500   184.73666      368.3802      -2330.0581      8.0472525     -2322.0108     -18611.144    
      9550   189.52261      377.92379     -2330.3881      8.2557318     -2322.1324     -18260.357    
      9600   174.73508      348.43622     -2329.7509      7.6115769     -2322.1393     -17377.806    
      9650   192.09779      383.0589      -2330.458       8.3679081     -2322.0901     -15407.894    
      9700   165.11159      329.24618     -2329.3444      7.1923711     -2322.152      -17584.495    
      9750   164.6373       328.30041     -2329.3704      7.1717108     -2322.1987     -12796.03     
      9800   171.49549      341.97621     -2329.7235      7.4704582     -2322.2531     -20367.451    
      9850   183.94631      366.80418     -2330.3763      8.0128243     -2322.3635     -18347.351    
      9900   173.28258      345.53982     -2329.8578      7.5483051     -2322.3095     -15507.01     
      9950   172.39789      343.77567     -2329.6841      7.5097673     -2322.1743     -20532.287    
     10000   165.89796      330.81427     -2329.4517      7.226626      -2322.2251     -15572.388    
     10050   176.10219      351.16236     -2329.9612      7.6711293     -2322.29       -16447.305    
     10100   177.65056      354.24992     -2330.1791      7.738577      -2322.4406     -16227.311    
     10150   187.91452      374.71712     -2330.5549      8.1856823     -2322.3692     -17037.837    
     10200   169.24299      337.48454     -2329.742       7.3723378     -2322.3696     -13125.673    
     10250   173.73063      346.43328     -2329.7688      7.5678226     -2322.201      -18421.901    
     10300   171.11868      341.22482     -2329.8028      7.454044      -2322.3487     -15094.009    
     10350   170.64063      340.27156     -2329.8162      7.4332201     -2322.383      -14705.165    
     10400   190.33394      379.54165     -2330.7193      8.2910739     -2322.4282     -18281.078    
     10450   173.64097      346.25448     -2330.1843      7.5639169     -2322.6204     -14661.586    
     10500   188.38452      375.65434     -2330.9088      8.2061558     -2322.7027     -15858.519    
     10550   175.28899      349.54077     -2330.0479      7.6357058     -2322.4122     -18035.987    
     10600   196.93987      392.71441     -2331.0158      8.5788324     -2322.437      -16404.376    
     10650   192.22124      383.30507     -2330.8818      8.3732857     -2322.5085     -15822.89     
     10700   187.45415      373.79911     -2330.6284      8.1656283     -2322.4628     -17587.991    
     10750   201.05998      400.93025     -2331.261       8.7583071     -2322.5027     -14652.161    
     10800   187.90992      374.70795     -2330.2135      8.1854818     -2322.028      -18842.853    
     10850   185.09191      369.08861     -2330.3137      8.0627276     -2322.251      -18338.793    
     10900   182.42065      363.7619      -2329.9848      7.9463657     -2322.0385     -18911.634    
     10950   184.57728      368.06238     -2330.2389      8.0403096     -2322.1985     -16875.577    
     11000   191.78802      382.44121     -2330.6443      8.3544146     -2322.2899     -19470.388    
     11050   178.60249      356.14817     -2330.1343      7.780044      -2322.3543     -18217.95     
     11100   180.56885      360.06924     -2330.0963      7.8656997     -2322.2306     -19366.733    
     11150   183.19572      365.30743     -2330.1171      7.9801279     -2322.137      -16051.067    
     11200   182.9856       364.88845     -2329.8398      7.9709753     -2321.8689     -20678.974    
     11250   195.30012      389.44462     -2330.3603      8.5074039     -2321.8529     -13046.588    
     11300   174.66032      348.28714     -2329.5585      7.6083203     -2321.9502     -15195.342    
     11350   198.72208      396.26828     -2330.5562      8.6564665     -2321.8997     -17532.866    
     11400   188.42108      375.72725     -2330.2645      8.2077483     -2322.0568     -16830.85     
     11450   186.53778      371.97178     -2330.1955      8.1257104     -2322.0698     -17227.669    
     11500   197.34022      393.51275     -2330.8266      8.5962721     -2322.2303     -16126.716    
     11550   197.60449      394.03972     -2330.8909      8.6077838     -2322.2831     -17037.234    
     11600   197.16591      393.16516     -2330.9592      8.5886791     -2322.3705     -18787.112    
     11650   184.45158      367.81172     -2330.4602      8.034834      -2322.4254     -16499.855    
     11700   175.26497      349.49287     -2330.0531      7.6346593     -2322.4184     -19247.392    
     11750   188.58109      376.04633     -2330.6671      8.2147186     -2322.4524     -18948.026    
     11800   169.44985      337.89704     -2329.8574      7.3813488     -2322.4761     -15031.095    
     11850   165.10156      329.22618     -2329.747       7.1919342     -2322.555      -16309.158    
     11900   191.01591      380.90155     -2330.7537      8.3207808     -2322.4329     -15957.239    
     11950   173.57352      346.11998     -2330.0886      7.5609787     -2322.5276     -15060.946    
     12000   177.30604      353.56292     -2330.1788      7.7235695     -2322.4553     -15723.866    
     12050   173.54714      346.06738     -2330.0166      7.5598297     -2322.4568     -17191.772    
     12100   176.63502      352.22487     -2330.2499      7.6943397     -2322.5555     -15649.956    
     12150   198.52513      395.87555     -2331.2394      8.6478873     -2322.5915     -18543.097    
     12200   169.80905      338.6133      -2330.0586      7.3969956     -2322.6616     -14752.603    
     12250   178.76847      356.47915     -2330.5271      7.7872743     -2322.7398     -16070.227    
     12300   175.64603      350.25272     -2330.4097      7.6512583     -2322.7585     -16803.517    
     12350   169.04579      337.0913      -2329.9869      7.3637475     -2322.6231     -12795.628    
     12400   180.84691      360.62373     -2330.6885      7.8778126     -2322.8107     -12583.402    
     12450   179.39733      357.73314     -2330.6598      7.8146677     -2322.8451     -16261.726    
     12500   188.4582       375.80126     -2330.574       8.2093651     -2322.3646     -16921.719    
     12550   181.08595      361.10039     -2330.1085      7.8882253     -2322.2203     -16226.073    
     12600   193.51016      385.87529     -2330.673       8.4294321     -2322.2435     -14878.868    
     12650   195.72261      390.28709     -2330.6622      8.5258077     -2322.1364     -17959.592    
     12700   188.57438      376.03295     -2330.3565      8.2144263     -2322.1421     -17878.054    
     12750   196.36119      391.56047     -2330.7523      8.5536247     -2322.1987     -15484.475    
     12800   213.06082      424.86092     -2331.5943      9.2810718     -2322.3132     -18292.689    
     12850   180.65326      360.23757     -2330.3063      7.869377      -2322.4369     -17114.141    
     12900   177.15081      353.25339     -2330.2292      7.7168077     -2322.5124     -16913.268    
     12950   169.82124      338.63763     -2329.8674      7.397527      -2322.4699     -14945.627    
     13000   176.31083      351.57841     -2330.3948      7.6802178     -2322.7146     -17555.849    
     13050   168.81229      336.6257      -2329.921       7.3535764     -2322.5674     -19664.344    
     13100   191.37488      381.61737     -2330.6663      8.3364179     -2322.3299     -16711.932    
     13150   190.27516      379.42443     -2330.6081      8.2885132     -2322.3196     -16169.01     
     13200   197.1664       393.16613     -2330.9881      8.5887002     -2322.3994     -17172.269    
     13250   199.26297      397.34688     -2330.8775      8.6800284     -2322.1974     -18202.204    
     13300   184.30495      367.51934     -2330.3157      8.0284468     -2322.2872     -16787.552    
     13350   179.4337       357.80567     -2330.0005      7.8162521     -2322.1842     -17324.505    
     13400   198.63409      396.09284     -2330.7118      8.6526339     -2322.0592     -19871.282    
     13450   188.71339      376.31014     -2330.3786      8.2204816     -2322.1581     -17321.707    
     13500   195.16959      389.18433     -2330.6435      8.5017179     -2322.1417     -16619.369    
     13550   179.10982      357.15981     -2329.6978      7.8021434     -2321.8957     -16585.254    
     13600   184.608        368.12365     -2330.0764      8.0416481     -2322.0348     -14603.265    
     13650   168.50948      336.02185     -2329.4749      7.3403854     -2322.1345     -18388.56     
     13700   191.16307      381.19499     -2330.4747      8.327191      -2322.1475     -16685.439    
     13750   194.18896      387.22888     -2330.4113      8.4590012     -2321.9523     -19238.083    
     13800   198.28546      395.39764     -2330.5893      8.6374474     -2321.9519     -16268.207    
     13850   197.85272      394.53472     -2330.5599      8.6185969     -2321.9413     -16106.41     
     13900   178.88601      356.71353     -2329.6706      7.7923943     -2321.8783     -17194.506    
     13950   167.66103      334.32998     -2329.1764      7.3034265     -2321.873      -17692.506    
     14000   178.10242      355.15097     -2329.7016      7.7582604     -2321.9434     -19746.45     
     14050   186.97652      372.84668     -2330.1476      8.1448224     -2322.0028     -17652.831    
     14100   172.64491      344.26826     -2329.5875      7.5205279     -2322.067      -17286.906    
     14150   186.00048      370.90037     -2330.181       8.1023054     -2322.0787     -18181.866    
     14200   174.12448      347.21863     -2329.7567      7.5849787     -2322.1717     -17547.361    
     14250   170.35003      339.69207     -2329.5974      7.4205613     -2322.1768     -15282.158    
     14300   186.10388      371.10656     -2330.4215      8.1068097     -2322.3147     -18734.558    
     14350   183.27896      365.47344     -2330.2533      7.9837543     -2322.2696     -16749.727    
     14400   177.6176       354.18422     -2330.0678      7.7371416     -2322.3307     -17124.067    
     14450   172.06662      343.1151      -2329.7085      7.4953371     -2322.2132     -18136.546    
     14500   179.87121      358.67808     -2330.0971      7.83531       -2322.2618     -18501.775    
     14550   173.5953       346.16341     -2329.8915      7.5619275     -2322.3295     -14270.065    
     14600   168.32072      335.64545     -2329.8602      7.332163      -2322.528      -18541.873    
     14650   184.01547      366.94209     -2330.5097      8.0158369     -2322.4939     -16489.143    
     14700   188.22093      375.32812     -2330.7391      8.1990295     -2322.5401     -14298.489    
     14750   172.97345      344.92338     -2329.8761      7.534839      -2322.3413     -17580.155    
     14800   177.15218      353.25612     -2330.1219      7.7168674     -2322.4051     -12602.918    
     14850   191.02155      380.91279     -2330.8186      8.3210263     -2322.4976     -17758.872    
     14900   170.76779      340.52511     -2329.9894      7.438759      -2322.5506     -17183.021    
     14950   184.46658      367.84164     -2330.6969      8.0354876     -2322.6614     -13354.172    
     15000   174.72052      348.40719     -2330.2501      7.6109426     -2322.6392     -18733.165    
     15050   168.19746      335.39967     -2329.3961      7.3267939     -2322.0694     -16116.014    
     15100   181.41044      361.74745     -2330.194       7.9023603     -2322.2916     -14128.4      
     15150   171.77106      342.52573     -2329.8457      7.4824623     -2322.3633     -18393.404    
     15200   170.72879      340.44735     -2329.8722      7.4370603     -2322.4351     -16148.94     
     15250   183.9945       366.90028     -2330.4514      8.0149235     -2322.4365     -13064.315    
     15300   183.91302      366.7378      -2330.5795      8.0113743     -2322.5682     -16330.284    
     15350   197.20829      393.24968     -2330.9113      8.5905252     -2322.3207     -21105.701    
     15400   182.28846      363.49829     -2330.3503      7.9406073     -2322.4097     -17721.228    
     15450   189.17449      377.2296      -2330.3441      8.2405671     -2322.1035     -16348.012    
     15500   171.1424       341.27212     -2329.7204      7.4550773     -2322.2654     -18035.595    
     15550   190.63523      380.14244     -2330.478       8.304198      -2322.1738     -13780.4      
     15600   191.91561      382.69563     -2330.56        8.3599724     -2322.2001     -18362.707    
     15650   173.29539      345.56536     -2329.6587      7.548863      -2322.1098     -15393.438    
     15700   167.53063      334.06995     -2329.4674      7.2977462     -2322.1697     -16983.755    
     15750   207.59486      413.96135     -2331.4336      9.042971      -2322.3907     -13771.981    
     15800   208.19495      415.15798     -2331.0745      9.0691113     -2322.0054     -17381.096    
     15850   188.93013      376.74232     -2330.3717      8.2299226     -2322.1418     -13751.576    
     15900   195.05506      388.95595     -2330.676       8.496729      -2322.1793     -14497.829    
     15950   197.87342      394.576       -2330.671       8.6194987     -2322.0515     -15490.735    
     16000   191.67031      382.20647     -2330.3843      8.3492868     -2322.035      -15896.366    
     16050   170.47091      339.93311     -2329.4706      7.4258268     -2322.0447     -11993.014    
     16100   175.1088       349.18146     -2329.6609      7.6278565     -2322.033      -15472.873    
     16150   183.79043      366.49335     -2330.0921      8.0060342     -2322.0861     -14282.06     
     16200   192.9159       384.69028     -2330.3872      8.4035456     -2321.9837     -11432.988    
     16250   194.3735       387.59686     -2330.4467      8.4670396     -2321.9796     -16358.814    
     16300   184.95887      368.82331     -2329.7089      8.0569321     -2321.652      -16217.752    
     16350   190.4606       379.79421     -2329.9397      8.296591      -2321.6431     -15070.006    
     16400   190.84419      380.55913     -2330.0747      8.3133006     -2321.7614     -16983.902    
     16450   174.21448      347.39811     -2329.3823      7.5888994     -2321.7934     -13744.52     
     16500   178.27314      355.49141     -2329.3644      7.7656972     -2321.5987     -15347.863    
     16550   192.57602      384.01254     -2330.0003      8.3887402     -2321.6115     -16696.383    
     16600   207.56083      413.89349     -2330.3033      9.0414885     -2321.2618     -13564.759    
     16650   216.7161       432.14986     -2330.1811      9.4402983     -2320.7408     -15772.736    
     16700   198.52628      395.87784     -2328.4143      8.6479374     -2319.7664     -15966.645    
     16750   219.53521      437.77139     -2329.5229      9.5631004     -2319.9598     -17115.637    
     16800   207.54603      413.86398     -2328.7135      9.0408439     -2319.6726     -16939.553    
     16850   208.45177      415.6701      -2329.0136      9.0802987     -2319.9333     -16235.927    
     16900   205.03703      408.86083     -2328.7985      8.9315502     -2319.867      -18884.012    
     16950   219.0282       436.76038     -2329.3089      9.541015      -2319.7679     -14039.217    
     17000   183.1401       365.19652     -2327.8659      7.977705      -2319.8882     -17297.717    
     17050   202.63017      404.06135     -2328.8222      8.8267058     -2319.9955     -13520.113    
     17100   183.10239      365.12134     -2327.9294      7.9760626     -2319.9533     -18237.122    
     17150   181.88443      362.69263     -2327.7963      7.9230075     -2319.8733     -19781.033    
     17200   197.62983      394.09025     -2328.4344      8.6088875     -2319.8255     -14963.048    
     17250   196.88204      392.59909     -2328.1979      8.5763131     -2319.6215     -18725.96     
     17300   200.80931      400.43039     -2328.4971      8.7473877     -2319.7498     -16641.726    
     17350   207.93738      414.64436     -2328.8889      9.0578914     -2319.831      -17679.847    
     17400   198.47212      395.76984     -2328.6598      8.6455782     -2320.0142     -17180.004    
     17450   183.05043      365.01773     -2327.9072      7.9737993     -2319.9334     -14090.117    
     17500   215.04921      428.82595     -2329.4227      9.3676876     -2320.0551     -14554.937    
     17550   216.5589       431.83638     -2329.2131      9.4334503     -2319.7796     -15693.536    
     17600   200.76263      400.33732     -2328.5973      8.7453546     -2319.8519     -16766.868    
     17650   204.62273      408.03467     -2328.7284      8.9135028     -2319.8149     -16631.597    
     17700   215.12307      428.97321     -2329.0974      9.3709046     -2319.7265     -18611.418    
     17750   184.04554      367.00205     -2327.6638      8.0171468     -2319.6467     -16771.583    
     17800   188.30355      375.49289     -2327.5902      8.2026288     -2319.3876     -13832.178    
     17850   211.08475      420.92047     -2328.4117      9.1949927     -2319.2167     -14945.872    
     17900   212.91044      424.56106     -2328.6566      9.2745213     -2319.382      -19757.74     
     17950   199.63474      398.08821     -2327.8733      8.6962227     -2319.1771     -14960.378    
     18000   188.2676       375.42118     -2327.2309      8.2010624     -2319.0299     -13836.228    
     18050   200.56088      399.93501     -2327.5796      8.7365662     -2318.843      -17434.176    
     18100   194.6996       388.24713     -2327.5226      8.4812448     -2319.0414     -15439.926    
     18150   216.44526      431.60978     -2328.5999      9.4285003     -2319.1714     -17126.102    
     18200   215.75692      430.23718     -2328.6833      9.3985159     -2319.2848     -17335.719    
     18250   218.43108      435.56967     -2329.0659      9.515004      -2319.5509     -14778.93     
     18300   203.99139      406.77572     -2328.4196      8.8860012     -2319.5336     -15151.211    
     18350   182.30417      363.52961     -2327.5843      7.9412915     -2319.643      -13629.438    
     18400   190.36019      379.59399     -2327.7747      8.2922171     -2319.4824     -17143.661    
     18450   212.61337      423.96867     -2328.8309      9.2615804     -2319.5694     -19188.947    
     18500   207.42556      413.62375     -2328.7194      9.0355962     -2319.6838     -15075.323    
     18550   190.84048      380.55173     -2328.1312      8.313139      -2319.8181     -22469.234    
     18600   200.52032      399.85413     -2328.4591      8.7347993     -2319.7243     -15441.691    
     18650   208.00661      414.78241     -2328.9029      9.060907      -2319.842      -15874.095    
     18700   193.98595      386.82405     -2327.8968      8.4501576     -2319.4467     -18413.957    
     18750   215.50149      429.72783     -2328.7753      9.3873892     -2319.3879     -16659.576    
     18800   201.64065      402.08815     -2328.3582      8.7836015     -2319.5746     -14511.769    
     18850   213.29506      425.32802     -2328.7817      9.2912754     -2319.4904     -14674.081    
     18900   210.4956       419.74566     -2328.4237      9.169329      -2319.2544     -15431.425    
     18950   189.74308      378.36341     -2328.2825      8.2653354     -2320.0171     -15844.876    
     19000   208.28103      415.32963     -2328.8621      9.072861      -2319.7892     -16690.665    
     19050   204.94134      408.67002     -2328.5236      8.927382      -2319.5962     -17349.241    
     19100   207.54029      413.85253     -2328.7253      9.0405939     -2319.6847     -18134.912    
     19150   201.48067      401.76914     -2328.6672      8.7766326     -2319.8906     -16956.146    
     19200   202.52465      403.85092     -2328.976       8.822109      -2320.1539     -15174.132    
     19250   213.79049      426.31595     -2329.3385      9.3128568     -2320.0257     -16081.435    
     19300   207.57547      413.92269     -2329.1826      9.0421264     -2320.1405     -15163.084    
     19350   206.78659      412.3496      -2329.0615      9.0077623     -2320.0538     -14018.009    
     19400   201.99524      402.79524     -2328.4933      8.7990477     -2319.6942     -20341.756    
     19450   218.71364      436.13312     -2329.1747      9.5273125     -2319.6474     -14128.939    
     19500   210.95032      420.65241     -2329.0201      9.189137      -2319.831      -15098.131    
     19550   220.5288       439.7527      -2329.002       9.606382      -2319.3956     -18046.482    
     19600   216.36061      431.44097     -2329.0663      9.4248128     -2319.6415     -17266.164    
     19650   217.21246      433.13964     -2329.2032      9.46192       -2319.7413     -15009.751    
     19700   227.97584      454.6027      -2329.3893      9.9307799     -2319.4585     -17839.607    
     19750   208.79033      416.34522     -2328.6559      9.0950466     -2319.5608     -12219.902    
     19800   194.74709      388.34184     -2327.4681      8.4833137     -2318.9848     -16748.204    
     19850   217.80159      434.31442     -2329.0719      9.487583      -2319.5844     -16278.673    
     19900   188.75354      376.3902      -2327.9336      8.2222305     -2319.7114     -16696.212    
     19950   215.85186      430.42648     -2329.0404      9.4026512     -2319.6378     -17944.055    
     20000   212.0866       422.91825     -2329.1716      9.2386341     -2319.933      -15491.82     
     20050   204.57494      407.93938     -2328.7454      8.9114213     -2319.834      -15204.48     
     20100   211.68618      422.11977     -2329.0837      9.2211915     -2319.8625     -14434.087    
     20150   217.33927      433.3925      -2328.8847      9.4674439     -2319.4173     -17293.026    
     20200   220.46217      439.61983     -2328.8738      9.6034795     -2319.2704     -20458.911    
     20250   206.63691      412.05112     -2328.3422      9.0012421     -2319.3409     -12887.064    
     20300   228.51222      455.67229     -2329.5751      9.9541451     -2319.621      -15649.694    
     20350   206.32381      411.42677     -2328.3818      8.9876032     -2319.3942     -17993.537    
     20400   229.8849       458.40954     -2329.4977      10.01394      -2319.4838     -17862.239    
     20450   197.28375      393.40014     -2328.2583      8.5938121     -2319.6645     -14857.977    
     20500   220.516        439.72717     -2329.1757      9.6058243     -2319.5699     -14783.867    
     20550   232.21023      463.04644     -2329.6234      10.115233     -2319.5082     -14287.036    
     20600   227.13385      452.92371     -2329.3403      9.8941025     -2319.4462     -14425.774    
     20650   209.00786      416.77898     -2328.4247      9.1045221     -2319.3202     -14493.777    
     20700   205.83621      410.45445     -2328.3874      8.9663628     -2319.4211     -18817.182    
     20750   226.2919       451.24479     -2329.3871      9.8574265     -2319.5297     -14346.615    
     20800   205.24737      409.28027     -2328.5692      8.9407129     -2319.6285     -15259.845    
     20850   205.79917      410.38059     -2328.6935      8.9647494     -2319.7288     -14861.524    
     20900   207.10564      412.98581     -2328.8605      9.0216604     -2319.8388     -17799.559    
     20950   200.30279      399.42036     -2328.6591      8.7253235     -2319.9337     -15335.61     
     21000   198.38276      395.59165     -2328.6703      8.6416856     -2320.0287     -14606.445    
     21050   194.54642      387.94168     -2328.6124      8.4745722     -2320.1379     -13569.453    
     21100   202.11616      403.03636     -2329.0535      8.804315      -2320.2492     -13941.942    
     21150   215.30353      429.33308     -2329.7275      9.3787659     -2320.3487     -17623.977    
     21200   194.99299      388.83218     -2328.9445      8.4940251     -2320.4504     -16004.015    
     21250   193.79798      386.44923     -2328.9946      8.4419697     -2320.5526     -18478.467    
     21300   226.16926      451.00023     -2330.5199      9.8520841     -2320.6678     -16753.586    
     21350   197.75318      394.33622     -2329.37        8.6142606     -2320.7558     -18281.322    
     21400   205.11388      409.01407     -2329.7847      8.9348978     -2320.8498     -15548.424    
     21450   219.58543      437.87154     -2330.5241      9.5652882     -2320.9588     -19010.051    
     21500   216.62351      431.96522     -2330.5073      9.4362649     -2321.071      -19953.542    
     21550   213.77799      426.29102     -2330.4789      9.3123123     -2321.1666     -19681.182    
     21600   207.43036      413.63331     -2330.2942      9.035805      -2321.2584     -18071.832    
     21650   204.75202      408.29249     -2330.2832      8.9191349     -2321.3641     -18289.197    
     21700   210.75082      420.2546      -2330.6492      9.1804468     -2321.4687     -19282.626    
     21750   186.79471      372.48413     -2329.6837      8.1369026     -2321.5468     -24274.196    
     21800   216.64693      432.01192     -2331.0921      9.437285      -2321.6548     -21869.544    
     21850   203.49002      405.77596     -2330.6216      8.8641614     -2321.7574     -21234.859    
     21900   195.34198      389.5281      -2330.3556      8.5092275     -2321.8464     -25582.492    
     21950   209.51872      417.79768     -2331.0794      9.1267755     -2321.9526     -19182.43     
     22000   199.3169       397.45441     -2330.7452      8.6823775     -2322.0628     -22504.276    
     22050   206.39767      411.57405     -2331.1533      8.9908205     -2322.1625     -22068.499    
     22100   195.95962      390.75972     -2330.7853      8.5361322     -2322.2492     -24542.603    
     22150   192.65771      384.17543     -2330.7397      8.3922987     -2322.3474     -20964.333    
     22200   202.5142       403.83009     -2331.2707      8.821654      -2322.449      -24222.946    
     22250   196.04822      390.93639     -2331.063       8.5399916     -2322.523      -24461.665    
     22300   197.33976      393.51184     -2331.2277      8.5962521     -2322.6315     -23666.057    
     22350   191.99399      382.85191     -2331.085       8.3633865     -2322.7216     -21949.722    
     22400   189.77823      378.43351     -2331.0766      8.2668665     -2322.8097     -20961.483    
     22450   155.5886       310.25656     -2329.662       6.7775435     -2322.8844     -23535.696    
     22500   176.08296      351.12402     -2330.6484      7.6702917     -2322.9781     -20550.601    
     22550   190.72814      380.32771     -2331.3635      8.3082453     -2323.0552     -21778.912    
     22600   179.9306       358.79652     -2330.9851      7.8378972     -2323.1472     -22134.99     
     22650   193.66518      386.18442     -2331.6773      8.4361849     -2323.2411     -25091.871    
     22700   177.92838      354.80393     -2331.0745      7.7506793     -2323.3238     -22991.882    
     22750   183.39548      365.70578     -2331.3932      7.9888298     -2323.4044     -21749.009    
     22800   190.69905      380.26971     -2331.8018      8.3069783     -2323.4948     -19665.627    
     22850   197.59831      394.0274      -2332.1942      8.6075146     -2323.5866     -19675.272    
     22900   180.19158      359.31694     -2331.5065      7.8492659     -2323.6573     -20929.992    
     22950   178.7255       356.39346     -2331.5243      7.7854024     -2323.7389     -19009.166    
     23000   177.61555      354.18012     -2331.5593      7.7370522     -2323.8222     -16865.616    
     23050   193.90083      386.65432     -2332.3524      8.4464498     -2323.906      -19012.614    
     23100   182.47369      363.86766     -2331.93        7.948676      -2323.9813     -19830.428    
     23150   175.61538      350.19161     -2331.7134      7.6499232     -2324.0634     -19532.206    
     23200   177.14731      353.2464      -2331.858       7.7166551     -2324.1414     -19031.963    
     23250   172.75097      344.47974     -2331.7465      7.5251477     -2324.2214     -15081.931    
     23300   163.62733      326.28645     -2331.416       7.127716      -2324.2883     -17645.861    
     23350   165.57535      330.17097     -2331.5665      7.2125731     -2324.3539     -17511.334    
     23400   185.99768      370.89478     -2332.5324      8.1021833     -2324.4302     -17024.948    
     23450   168.20694      335.41857     -2331.8219      7.3272067     -2324.4947     -17263.019    
     23500   160.62753      320.3046      -2331.5593      6.9970427     -2324.5623     -14961.258    
     23550   175.66805      350.29665     -2332.2856      7.6522179     -2324.6334     -18141.685    
     23600   168.43372      335.8708      -2332.0327      7.3370856     -2324.6956     -19289.203    
     23650   180.64109      360.2133      -2332.6363      7.8688467     -2324.7675     -22359.177    
     23700   167.68597      334.37972     -2332.1355      7.3045132     -2324.831      -18695.81     
     23750   178.20459      355.35472     -2332.6789      7.7627113     -2324.9162     -20252.018    
     23800   165.80329      330.62549     -2332.1895      7.222502      -2324.967      -23266.511    
     23850   172.13755      343.25654     -2332.5384      7.498427      -2325.0399     -23101.726    
     23900   164.47941      327.98556     -2332.2815      7.1648329     -2325.1167     -21809.88     
     23950   156.8418       312.75555     -2332.0119      6.8321338     -2325.1798     -20014.662    
     24000   168.37117      335.74606     -2332.5786      7.3343608     -2325.2442     -22682.116    
     24050   167.8107       334.62843     -2332.6163      7.3099462     -2325.3063     -21727.963    
     24100   168.37503      335.75375     -2332.7058      7.3345287     -2325.3713     -18456.796    
     24150   173.59884      346.17048     -2333.0009      7.5620817     -2325.4388     -22220.337    
     24200   158.777        316.6145      -2332.4157      6.9164325     -2325.4992     -21362.811    
     24250   175.79289      350.54559     -2333.2275      7.6576559     -2325.5698     -21292.007    
     24300   172.39733      343.77457     -2333.1549      7.5097432     -2325.6451     -18493.235    
     24350   155.50725      310.09433     -2332.4816      6.7739997     -2325.7076     -17889.413    
     24400   167.40702      333.82347     -2333.0623      7.2923619     -2325.7699     -24843.943    
     24450   158.83699      316.73411     -2332.7517      6.9190453     -2325.8326     -17942.316    
     24500   172.18208      343.34532     -2333.3951      7.5003664     -2325.8948     -21704.764    
     24550   162.50494      324.04831     -2333.037       7.0788237     -2325.9582     -21483.088    
     24600   152.86213      304.81975     -2332.6736      6.6587765     -2326.0148     -20227.672    
     24650   155.20542      309.49247     -2332.841       6.7608521     -2326.0802     -21158.23     
     24700   168.39912      335.8018      -2333.473       7.3355784     -2326.1374     -24646.198    
     24750   153.88376      306.85696     -2332.9004      6.7032794     -2326.1971     -20953.078    
     24800   149.29158      297.69977     -2332.7522      6.5032409     -2326.249      -21581.963    
     24850   168.14538      335.29583     -2333.6273      7.3245254     -2326.3028     -20958.665    
     24900   171.83406      342.65135     -2333.8388      7.4852066     -2326.3536     -22214.626    
     24950   163.44871      325.93026     -2333.5361      7.1199351     -2326.4161     -20802.292    
     25000   160.04934      319.15165     -2333.4499      6.9718564     -2326.478      -18326.452    
     25050   167.48458      333.97813     -2333.8221      7.2957405     -2326.5264     -22969.285    
     25100   161.33274      321.71084     -2333.6109      7.0277619     -2326.5832     -19491.266    
     25150   167.34807      333.7059      -2333.9271      7.2897936     -2326.6373     -19229.647    
     25200   170.4583       339.90798     -2334.1234      7.4252777     -2326.6982     -21441.254    
     25250   157.25465      313.57879     -2333.5906      6.8501176     -2326.7405     -20869.396    
     25300   151.22784      301.56085     -2333.3846      6.587586      -2326.797      -17780.278    
     25350   144.31135      287.76879     -2333.1309      6.2862991     -2326.8446     -22025.609    
     25400   155.59987      310.27902     -2333.6811      6.7780343     -2326.9031     -21927.426    
     25450   150.90236      300.9118      -2333.5301      6.5734076     -2326.9567     -16848.254    
     25500   161.39776      321.8405      -2334.0414      7.0305943     -2327.0108     -20300.928    
     25550   156.68781      312.44846     -2333.8856      6.8254256     -2327.0602     -21013.098    
     25600   148.45924      296.04002     -2333.5818      6.4669837     -2327.1148     -22397.349    
     25650   157.95718      314.9797      -2334.0486      6.8807204     -2327.1678     -17941.505    
     25700   142.97109      285.09619     -2333.4457      6.2279162     -2327.2178     -22769.946    
     25750   156.02164      311.12007     -2334.0569      6.7964069     -2327.2605     -18996.855    
     25800   146.58193      292.29652     -2333.6862      6.385207      -2327.301      -21059.429    
     25850   153.38296      305.85832     -2334.0329      6.6814642     -2327.3514     -18666.641    
     25900   145.67233      290.48269     -2333.736       6.345584      -2327.3904     -19990.614    
     25950   148.25564      295.63403     -2333.9052      6.458115      -2327.4471     -22319.665    
     26000   152.25568      303.61045     -2334.1224      6.6323594     -2327.49       -20828.918    
     26050   154.24351      307.57434     -2334.2541      6.7189506     -2327.5351     -23895.974    
     26100   153.0831       305.26038     -2334.2509      6.6684021     -2327.5825     -18045.916    
     26150   154.23488      307.55713     -2334.3458      6.7185745     -2327.6272     -20483.22     
     26200   155.07809      309.23855     -2334.4269      6.7553052     -2327.6716     -23917.999    
     26250   138.00947      275.20232     -2333.7213      6.0117849     -2327.7096     -19020.229    
     26300   136.04086      271.27675     -2333.6683      5.926031      -2327.7423     -21220.374    
     26350   151.97543      303.05159     -2334.4079      6.6201513     -2327.7878     -22907.675    
     26400   153.28526      305.6635      -2334.505       6.6772083     -2327.8278     -19945.11     
     26450   150.82456      300.75666     -2334.4326      6.5700187     -2327.8626     -24055.361    
     26500   143.81337      286.77577     -2334.17        6.2646066     -2327.9054     -22009.07     
     26550   141.81596      282.79277     -2334.1128      6.177598      -2327.9352     -22390.567    
     26600   153.18023      305.45407     -2334.6483      6.6726332     -2327.9757     -19449.897    
     26650   137.51508      274.21645     -2333.9997      5.9902487     -2328.0095     -24320.532    
     26700   146.48533      292.10388     -2334.4224      6.3809989     -2328.0414     -22089.572    
     26750   145.63941      290.41704     -2334.4171      6.3441499     -2328.0729     -22006.96     
     26800   148.72182      296.56364     -2334.5806      6.4784222     -2328.1022     -20684.116    
     26850   140.40115      279.97153     -2334.2513      6.1159681     -2328.1353     -23402.291    
     26900   156.10639      311.28908     -2334.9711      6.8000989     -2328.171      -22244.113    
     26950   141.86638      282.89331     -2334.3817      6.1797944     -2328.2019     -22529.041    
     27000   137.91676      275.01744     -2334.2366      6.0077463     -2328.2288     -18316.945    
     27050   143.95606      287.0603      -2334.5284      6.2708221     -2328.2576     -23442.849    
     27100   150.99069      301.08794     -2334.8666      6.5772554     -2328.2893     -20903.683    
     27150   147.72701      294.5799      -2334.7536      6.4350874     -2328.3185     -21491.606    
     27200   146.06871      291.27311     -2334.7131      6.3628507     -2328.3503     -21495.641    
     27250   138.17735      275.53708     -2334.3894      6.0190978     -2328.3703     -22414.258    
     27300   135.76268      270.72203     -2334.3206      5.913913      -2328.4067     -20724.774    
     27350   129.72924      258.69086     -2334.0768      5.6510926     -2328.4258     -20794.747    
     27400   142.31048      283.77889     -2334.66        6.1991398     -2328.4608     -20407.556    
     27450   136.23725      271.66837     -2334.4154      5.9345859     -2328.4808     -23829.967    
     27500   142.62336      284.40279     -2334.7233      6.2127689     -2328.5105     -20127.742    
     27550   136.71929      272.62959     -2334.4958      5.9555837     -2328.5402     -19294.98     
     27600   137.22496      273.63793     -2334.5387      5.9776109     -2328.5611     -23070.17     
     27650   127.51243      254.27035     -2334.1424      5.5545267     -2328.5879     -19977.27     
     27700   131.65831      262.53757     -2334.3472      5.7351239     -2328.6121     -19828.669    
     27750   141.14707      281.45896     -2334.7797      6.1484609     -2328.6312     -20572.26     
     27800   136.99992      273.18919     -2334.6224      5.9678081     -2328.6545     -18858.114    
     27850   135.40434      270.00748     -2334.5767      5.8983037     -2328.6784     -21545.179    
     27900   140.36937      279.90815     -2334.8137      6.1145836     -2328.6991     -21158.626    
     27950   151.4017       301.90753     -2335.3099      6.5951593     -2328.7148     -21277.723    
     28000   142.88445      284.92344     -2334.967       6.2241424     -2328.7429     -21448.991    
     28050   140.82317      280.81307     -2334.8973      6.1343516     -2328.7629     -23341.309    
     28100   135.08942      269.37949     -2334.6656      5.8845854     -2328.7811     -24378.531    
     28150   128.62569      256.49028     -2334.3967      5.6030211     -2328.7937     -18906.582    
     28200   138.44946      276.0797      -2334.8329      6.0309512     -2328.8019     -18907.798    
     28250   144.04369      287.23504     -2335.1039      6.2746394     -2328.8293     -19615.494    
     28300   124.45527      248.17411     -2334.2553      5.4213547     -2328.834      -20474.183    
     28350   135.97407      271.14356     -2334.7717      5.9231215     -2328.8486     -21480.002    
     28400   127.79665      254.8371      -2334.4298      5.5669075     -2328.8629     -19383.696    
     28450   133.52193      266.25378     -2334.6902      5.8163044     -2328.8739     -17839.27     
     28500   140.02716      279.22576     -2334.9832      6.0996768     -2328.8836     -19118.193    
     28550   144.19214      287.53108     -2335.1856      6.2811063     -2328.9044     -21443.454    
     28600   139.95155      279.07498     -2335.0091      6.096383      -2328.9127     -23897.936    
     28650   134.0218       267.25058     -2334.7632      5.8380794     -2328.9251     -19440.324    
     28700   135.86317      270.92242     -2334.8512      5.9182906     -2328.9329     -24790.106    
     28750   138.33435      275.85015     -2334.9716      6.0259368     -2328.9457     -20506.932    
     28800   137.93327      275.05037     -2334.9675      6.0084655     -2328.9591     -24458.78     
     28850   144.66898      288.48193     -2335.2645      6.3018775     -2328.9626     -21992.618    
     28900   142.26315      283.68451     -2335.1736      6.1970781     -2328.9765     -22689.187    
     28950   141.36823      281.89996     -2335.1339      6.1580946     -2328.9758     -22021.532    
     29000   136.13315      271.46077     -2334.911       5.9300509     -2328.981      -21914.769    
     29050   128.25609      255.75327     -2334.5734      5.5869212     -2328.9865     -21802.978    
     29100   127.6543       254.55325     -2334.5621      5.5607068     -2329.0014     -19799.917    
     29150   132.39001      263.99664     -2334.767       5.7669973     -2329          -18905.234    
     29200   133.45216      266.11466     -2334.8213      5.8132653     -2329.008      -20030.889    
     29250   133.28906      265.78942     -2334.8188      5.8061605     -2329.0126     -18096.977    
     29300   130.80551      260.83703     -2334.7072      5.6979757     -2329.0092     -21831.856    
     29350   137.83182      274.84807     -2335.0193      6.0040464     -2329.0153     -18713.99     
     29400   141.92268      283.00558     -2335.1985      6.1822469     -2329.0163     -17463.732    
     29450   140.73244      280.63213     -2335.1447      6.130399      -2329.0143     -19755.594    
     29500   138.24759      275.67714     -2335.0336      6.0221573     -2329.0115     -22772.743    
     29550   146.80645      292.74423     -2335.4063      6.3949873     -2329.0114     -19819.018    
     29600   141.81077      282.78241     -2335.1922      6.1773718     -2329.0149     -18763.261    
     29650   126.41339      252.07877     -2334.5091      5.5066518     -2329.0025     -20496.959    
     29700   129.22794      257.69121     -2334.6305      5.6292554     -2329.0013     -20859.301    
     29750   144.05273      287.25307     -2335.2755      6.2750331     -2329.0005     -22109.305    
     29800   148.10097      295.3256      -2335.4561      6.4513773     -2329.0048     -21049.26     
     29850   123.38845      246.04679     -2334.3606      5.3748833     -2328.9857     -21689.999    
     29900   126.7605       252.77093     -2334.5072      5.5217721     -2328.9854     -20460.651    
     29950   137.63851      274.4626      -2334.9757      5.9956258     -2328.98       -18962.307    
     30000   142.3066       283.77114     -2335.172       6.1989706     -2328.9731     -18679.272    
     30050   145.2496       289.63974     -2335.2895      6.3271699     -2328.9623     -21095.435    
     30100   153.34685      305.78632     -2335.6361      6.6798914     -2328.9562     -20621.438    
     30150   145.56733      290.27331     -2335.2887      6.3410101     -2328.9477     -20500.092    
     30200   144.15858      287.46416     -2335.2179      6.2796443     -2328.9382     -18208.695    
     30250   138.25807      275.69805     -2334.9549      6.0226141     -2328.9323     -18817.645    
     30300   135.31724      269.83379     -2334.8082      5.8945096     -2328.9137     -22583.494    
     30350   135.01545      269.23198     -2334.7911      5.8813631     -2328.9097     -20514.068    
     30400   130.09277      259.41577     -2334.5651      5.6669282     -2328.8981     -18900.574    
     30450   137.56085      274.30774     -2334.8895      5.9922428     -2328.8973     -20580.131    
     30500   126.90722      253.06351     -2334.4016      5.5281635     -2328.8735     -20235.798    
     30550   130.47216      260.17229     -2334.5425      5.6834544     -2328.859      -17578.944    
     30600   143.01892      285.19157     -2335.0788      6.2299996     -2328.8488     -19667.54     
     30650   146.77725      292.68599     -2335.2311      6.3937151     -2328.8373     -20381.612    
     30700   135.03551      269.272       -2334.6942      5.8822373     -2328.812      -23756.051    
     30750   139.65181      278.47728     -2334.8824      6.0833262     -2328.7991     -20614.513    
     30800   147.37183      293.87163     -2335.2063      6.4196154     -2328.7866     -22156.805    
     30850   139.78529      278.74345     -2334.8538      6.0891408     -2328.7647     -20767        
     30900   137.37479      273.9367      -2334.7414      5.9841376     -2328.7572     -22722.283    
     30950   139.60332      278.38059     -2334.8187      6.0812141     -2328.7374     -22490.4      
     31000   154.24173      307.57078     -2335.4387      6.7188729     -2328.7198     -20500.497    
     31050   133.34504      265.90106     -2334.4998      5.8085992     -2328.6912     -24508.654    
     31100   145.00867      289.1593      -2334.995       6.3166745     -2328.6783     -22417.938    
     31150   145.8558       290.84855     -2335.0173      6.3535764     -2328.6638     -21968.517    
     31200   146.28288      291.70018     -2335.0162      6.37218       -2328.644      -22229.557    
     31250   147.86059      294.84626     -2335.0694      6.4409062     -2328.6284     -18755.302    
     31300   143.88343      286.91548     -2334.8791      6.2676584     -2328.6114     -22561.767    
     31350   150.04824      299.20862     -2335.1268      6.5362017     -2328.5905     -22627.308    
     31400   134.05107      267.30894     -2334.404       5.8393542     -2328.5647     -18536.306    
     31450   140.51889      280.20632     -2334.6645      6.1210971     -2328.5434     -22972.238    
     31500   138.74686      276.67273     -2334.5655      6.043906      -2328.5216     -21253.413    
     31550   157.34424      313.75744     -2335.3542      6.8540202     -2328.5002     -19248.247    
     31600   138.54347      276.26715     -2334.5126      6.0350461     -2328.4776     -18805.782    
     31650   137.19027      273.56876     -2334.4353      5.9760999     -2328.4592     -20737.659    
     31700   142.37464      283.90682     -2334.6361      6.2019344     -2328.4341     -21926.886    
     31750   138.30234      275.78633     -2334.4398      6.0245425     -2328.4153     -19361.443    
     31800   142.56004      284.27652     -2334.6047      6.2100105     -2328.3947     -18147.549    
     31850   136.19425      271.58262     -2334.3052      5.9327128     -2328.3725     -20635.158    
     31900   145.39284      289.92537     -2334.6822      6.3334094     -2328.3488     -22641.031    
     31950   139.50562      278.18577     -2334.3966      6.0769583     -2328.3196     -22423.823    
     32000   145.02457      289.19101     -2334.612       6.3173674     -2328.2946     -20071.898    
     32050   152.39154      303.88136     -2334.9072      6.6382775     -2328.2689     -23818.181    
     32100   150.7806       300.66901     -2334.8209      6.5681039     -2328.2527     -19211.66     
     32150   147.82812      294.78152     -2334.6633      6.4394918     -2328.2238     -25043.521    
     32200   133.14598      265.50411     -2333.9985      5.7999278     -2328.1985     -23612.414    
     32250   140.10581      279.38259     -2334.2781      6.1031027     -2328.175      -19117.007    
     32300   130.95683      261.13876     -2333.8543      5.704567      -2328.1497     -25141.514    
     32350   138.55277      276.28571     -2334.1704      6.0354515     -2328.1349     -23360.842    
     32400   145.7468       290.6312      -2334.4505      6.3488281     -2328.1016     -18421.743    
     32450   153.3049       305.70267     -2334.766       6.6780639     -2328.0879     -21438.816    
     32500   147.74832      294.62239     -2334.4904      6.4360156     -2328.0543     -23952.763    
     32550   139.02467      277.22672     -2334.0877      6.0560078     -2328.0317     -20130.844    
     32600   148.55106      296.22313     -2334.4823      6.4709837     -2328.0113     -20869.485    
     32650   154.31308      307.71307     -2334.713       6.7219811     -2327.991      -21153.319    
     32700   163.75528      326.5416      -2335.0981      7.1332897     -2327.9648     -19380.127    
     32750   153.62844      306.34783     -2334.6346      6.6921574     -2327.9424     -21089.306    
     32800   153.03341      305.16129     -2334.5868      6.6662376     -2327.9205     -19203.905    
     32850   142.14685      283.45259     -2334.0868      6.1920117     -2327.8948     -19202.919    
     32900   139.80483      278.78241     -2333.9606      6.0899919     -2327.8706     -16619.95     
     32950   153.80705      306.704       -2334.5477      6.699938      -2327.8478     -22257.115    
     33000   156.78482      312.64191     -2334.6453      6.8296514     -2327.8156     -20773.953    
     33050   154.06021      307.20882     -2334.5023      6.7109657     -2327.7913     -20562.501    
     33100   169.06784      337.13528     -2335.1306      7.3647082     -2327.7659     -20277.67     
     33150   156.05522      311.18704     -2334.5433      6.7978698     -2327.7454     -24069.551    
     33200   148.38         295.88201     -2334.1859      6.463532      -2327.7224     -22001.708    
     33250   142.70313      284.56186     -2333.9103      6.2162437     -2327.694      -20457.017    
     33300   156.08622      311.24886     -2334.4831      6.7992202     -2327.6838     -22336.711    
     33350   165.78841      330.59582     -2334.8838      7.221854      -2327.6619     -20501.889    
     33400   162.37938      323.79793     -2334.7106      7.0733542     -2327.6373     -21285.407    
     33450   157.37892      313.8266      -2334.4658      6.8555309     -2327.6103     -22365.652    
     33500   151.39721      301.89858     -2334.1746      6.5949638     -2327.5797     -20722.127    
     33550   160.92406      320.89591     -2334.5726      7.0099598     -2327.5627     -17215.978    
     33600   149.82662      298.76669     -2334.0639      6.5265477     -2327.5374     -22125.753    
     33650   143.87081      286.89031     -2333.7761      6.2671086     -2327.509      -21046.893    
     33700   146.15282      291.44084     -2333.8534      6.3665147     -2327.4869     -21164.822    
     33750   147.46652      294.06046     -2333.8942      6.4237402     -2327.4705     -20093.814    
     33800   160.14048      319.33337     -2334.4289      6.9758262     -2327.4531     -21121.851    
     33850   150.82198      300.75153     -2334.0073      6.5699064     -2327.4374     -19688.349    
     33900   160.76972      320.58814     -2334.4194      7.0032366     -2327.4161     -22071.41     
     33950   144.20561      287.55792     -2333.669       6.2816926     -2327.3873     -24245.801    
     34000   148.53114      296.1834      -2333.8458      6.4701159     -2327.3757     -21153.337    
     34050   152.34318      303.78491     -2333.9955      6.6361707     -2327.3594     -22809.385    
     34100   156.05746      311.1915      -2334.1394      6.7979673     -2327.3415     -20934.61     
     34150   152.23082      303.56086     -2333.9497      6.6312762     -2327.3184     -19351.273    
     34200   153.88771      306.86484     -2334.0073      6.7034516     -2327.3038     -19309.017    
     34250   155.74946      310.57732     -2334.0617      6.7845506     -2327.2772     -21843.385    
     34300   145.35921      289.8583      -2333.5944      6.3319443     -2327.2625     -21906.925    
     34350   173.47847      345.93044     -2334.8031      7.5568382     -2327.2463     -20276.644    
     34400   152.69777      304.492       -2333.8754      6.6516169     -2327.2238     -25004.562    
     34450   151.89905      302.89928     -2333.8176      6.616824      -2327.2008     -24053.2      
     34500   150.51119      300.13178     -2333.7365      6.556368      -2327.1801     -23873.087    
     34550   158.92276      316.90515     -2334.0926      6.9227817     -2327.1698     -22805.674    
     34600   160.81182      320.67209     -2334.1548      7.0050705     -2327.1497     -19737.28     
[...]
    191150   155.32097      309.72289     -2335.0566      6.7658856     -2328.2907     -20134.694    
    191200   162.38971      323.81854     -2335.3597      7.0738045     -2328.2859     -20352.431    
    191250   143.21518      285.58293     -2334.5021      6.2385491     -2328.2636     -22798.805    
    191300   170.02889      339.05169     -2335.6596      7.4065722     -2328.2531     -22400.237    
    191350   162.46163      323.96195     -2335.325       7.0769373     -2328.2481     -22467.641    
    191400   148.67133      296.46294     -2334.7068      6.4762224     -2328.2306     -22148.628    
    191450   149.32601      297.76842     -2334.7238      6.5047407     -2328.2191     -22686.391    
    191500   157.67426      314.41554     -2335.0717      6.8683964     -2328.2033     -20980.4      
    191550   158.19726      315.45844     -2335.0851      6.8911784     -2328.1939     -18530.871    
    191600   164.83707      328.69877     -2335.3691      7.180413      -2328.1887     -21125.357    
    191650   161.39028      321.82559     -2335.2082      7.0302686     -2328.178      -18558.53     
    191700   165.66021      330.34019     -2335.3886      7.2162696     -2328.1723     -21090.336    
    191750   163.09556      325.22605     -2335.2681      7.1045516     -2328.1636     -17807.7      
    191800   168.58084      336.16417     -2335.5026      7.3434943     -2328.1591     -20179.956    
    191850   156.43344      311.94123     -2334.9576      6.8143451     -2328.1433     -20091.26     
    191900   170.02958      339.05307     -2335.5457      7.4066022     -2328.139      -21146.767    
    191950   155.18132      309.4444      -2334.8883      6.759802      -2328.1285     -22985.962    
    192000   161.51443      322.07315     -2335.1641      7.0356766     -2328.1284     -19544.614    
    192050   168.38536      335.77436     -2335.4684      7.334979      -2328.1334     -21931.307    
    192100   159.77604      318.60666     -2335.0875      6.9599511     -2328.1275     -21213.522    
    192150   155.18716      309.45604     -2334.8879      6.7600563     -2328.1278     -23578.817    
    192200   157.5935       314.2545      -2334.9922      6.8648784     -2328.1273     -22807.143    
    192250   160.87851      320.80507     -2335.1336      7.0079753     -2328.1256     -17053.554    
    192300   170.50096      339.99304     -2335.5549      7.4271359     -2328.1277     -21837.817    
    192350   178.78886      356.5198      -2335.9176      7.7881625     -2328.1294     -22381.277    
    192400   162.5136       324.06559     -2335.2075      7.0792012     -2328.1283     -18493.153    
    192450   163.05557      325.14632     -2335.2312      7.1028097     -2328.1284     -19954.883    
    192500   159.71925      318.49342     -2335.0861      6.9574775     -2328.1286     -18387.333    
    192550   150.01999      299.15229     -2334.6605      6.5349712     -2328.1256     -19225.987    
    192600   169.12875      337.25675     -2335.5008      7.3673617     -2328.1335     -22768.574    
    192650   155.32097      309.72289     -2334.9048      6.7658855     -2328.1389     -21611.273    
    192700   156.17973      311.43531     -2334.9463      6.8032934     -2328.143      -22781.616    
    192750   160.02316      319.09943     -2335.1332      6.9707158     -2328.1625     -19877.416    
    192800   155.03438      309.1514      -2334.9134      6.7534014     -2328.16       -20559.445    
    192850   170.51792      340.02687     -2335.6126      7.4278748     -2328.1847     -18398.24     
    192900   156.57601      312.22553     -2335.0052      6.8205556     -2328.1846     -20224.281    
    192950   145.01034      289.16262     -2334.5127      6.3167472     -2328.1959     -19857.467    
    193000   151.48784      302.0793      -2334.8107      6.5989116     -2328.2118     -20799.043    
    193050   160.26631      319.58431     -2335.2062      6.9813078     -2328.2249     -21751.491    
    193100   174.76467      348.49524     -2335.8579      7.6128661     -2328.245      -22078.646    
    193150   157.40677      313.88214     -2335.1094      6.8567442     -2328.2527     -19761.074    
    193200   166.19418      331.40496     -2335.5157      7.2395296     -2328.2761     -19683.512    
    193250   151.03319      301.1727      -2334.8692      6.5791069     -2328.2901     -20634.831    
    193300   149.35146      297.81919     -2334.8132      6.5058497     -2328.3074     -22204.884    
    193350   145.90017      290.93702     -2334.6766      6.3555088     -2328.321      -19309.103    
    193400   147.10612      293.34178     -2334.7502      6.4080408     -2328.3421     -20701.57     
    193450   152.30016      303.69913     -2335.0009      6.6342968     -2328.3666     -21734.889    
    193500   159.19438      317.44677     -2335.316       6.9346135     -2328.3813     -19143.625    
    193550   157.41006      313.8887      -2335.26        6.8568876     -2328.4031     -22442.176    
    193600   168.62503      336.25228     -2335.7654      7.3454192     -2328.42       -21044.841    
    193650   169.90213      338.79893     -2335.8493      7.4010506     -2328.4482     -19155.145    
    193700   159.71441      318.48377     -2335.4373      6.9572666     -2328.48       -22624.513    
    193750   163.44725      325.92735     -2335.6187      7.1198715     -2328.4988     -21586.814    
    193800   161.3355       321.71636     -2335.5529      7.0278824     -2328.525      -20727.247    
    193850   150.17497      299.46133     -2335.0919      6.541722      -2328.5502     -19606.003    
    193900   158.92837      316.91634     -2335.5028      6.9230262     -2328.5798     -19456.265    
    193950   167.23871      333.48784     -2335.8886      7.28503       -2328.6035     -21446.598    
    194000   150.53844      300.18613     -2335.1828      6.5575553     -2328.6253     -17601.317    
    194050   160.72228      320.49354     -2335.6631      7.00117       -2328.6619     -22308.369    
    194100   148.05381      295.23156     -2335.1458      6.4493229     -2328.6965     -17459.401    
    194150   162.42859      323.89606     -2335.8068      7.0754979     -2328.7313     -18318.025    
    194200   154.17238      307.4325      -2335.4719      6.7158521     -2328.756      -19231.516    
    194250   154.5361       308.15778     -2335.5134      6.7316957     -2328.7817     -20461.194    
    194300   140.16427      279.49916     -2334.9134      6.1056492     -2328.8078     -19286.29     
    194350   144.55377      288.25219     -2335.1426      6.2968589     -2328.8458     -19163.675    
    194400   159.99089      319.03508     -2335.8442      6.96931       -2328.8749     -19117.655    
    194450   142.96014      285.07436     -2335.1261      6.2274393     -2328.8987     -17799.409    
    194500   159.52264      318.10137     -2335.8886      6.9489131     -2328.9397     -20561.249    
    194550   146.84603      292.82315     -2335.3561      6.3967112     -2328.9594     -22969.169    
    194600   143.20217      285.55699     -2335.2282      6.2379823     -2328.9902     -21260.039    
    194650   145.21592      289.57257     -2335.3436      6.3257024     -2329.0179     -19891.944    
    194700   150.75795      300.62384     -2335.6115      6.5671172     -2329.0444     -20409.575    
    194750   147.88694      294.89881     -2335.5179      6.4420541     -2329.0758     -20357.395    
    194800   150.90838      300.92381     -2335.6736      6.5736699     -2329.0999     -20162.337    
    194850   158.51907      316.10017     -2336.0337      6.9051969     -2329.1285     -20155.169    
    194900   151.54588      302.19503     -2335.7604      6.6014397     -2329.1589     -20683.583    
    194950   163.56597      326.16409     -2336.3103      7.1250429     -2329.1852     -20292.076    
    195000   159.39672      317.85027     -2336.1534      6.9434278     -2329.2099     -22363.105    
    195050   158.82661      316.71341     -2336.1531      6.9185932     -2329.2345     -21088.905    
    195100   145.97778      291.09179     -2335.6202      6.3588897     -2329.2614     -21367.921    
    195150   141.32049      281.80476     -2335.4343      6.1560149     -2329.2783     -19834.951    
    195200   138.95131      277.08042     -2335.3545      6.0528119     -2329.3017     -19702.555    
    195250   145.70918      290.55618     -2335.6647      6.3471894     -2329.3175     -17292.018    
    195300   150.17766      299.46669     -2335.8884      6.5418393     -2329.3465     -21880.925    
    195350   145.48722      290.11357     -2335.6981      6.3375206     -2329.3606     -22737.549    
    195400   139.24113      277.65834     -2335.4382      6.0654367     -2329.3727     -19694.815    
    195450   147.50417      294.13554     -2335.8248      6.4253804     -2329.3994     -21427.911    
    195500   145.60649      290.3514      -2335.7478      6.3427161     -2329.4051     -22426.77     
    195550   144.56284      288.27027     -2335.7198      6.2972538     -2329.4225     -20352.275    
    195600   155.22614      309.53379     -2336.21        6.7617545     -2329.4482     -19879.463    
    195650   133.0674       265.34741     -2335.2542      5.7965047     -2329.4577     -19279.182    
    195700   134.86435      268.93069     -2335.3442      5.8747813     -2329.4694     -24018.427    
    195750   141.19211      281.54877     -2335.6231      6.150423      -2329.4727     -20292.866    
    195800   135.82864      270.85356     -2335.404       5.9167863     -2329.4872     -20943.062    
    195850   149.31273      297.74195     -2336.0035      6.5041623     -2329.4993     -21374.091    
    195900   165.94056      330.89923     -2336.744       7.2284819     -2329.5156     -19792.91     
    195950   149.78324      298.68019     -2336.0468      6.5246582     -2329.5222     -22135.667    
    196000   155.40276      309.88598     -2336.2998      6.7694482     -2329.5303     -17909.16     
    196050   139.52537      278.22515     -2335.6149      6.0778186     -2329.537      -22645.437    
    196100   142.41665      283.99059     -2335.7545      6.2037645     -2329.5507     -21105.393    
    196150   150.52623      300.16177     -2336.1201      6.5570233     -2329.5631     -21082.034    
    196200   144.52513      288.19509     -2335.8633      6.2956115     -2329.5677     -21320.82     
    196250   138.06043      275.30393     -2335.5824      6.0140046     -2329.5684     -21650.281    
    196300   134.82689      268.85599     -2335.4529      5.8731497     -2329.5798     -20170.717    
    196350   130.7427       260.71178     -2335.2767      5.6952395     -2329.5814     -18350.905    
    196400   137.91012      275.0042      -2335.5918      6.0074569     -2329.5844     -20626.913    
    196450   131.97079      263.16069     -2335.3308      5.7487359     -2329.582      -22550.527    
    196500   147.03955      293.20903     -2335.9992      6.405141      -2329.594      -22552.308    
    196550   151.7797       302.6613      -2336.203       6.6116253     -2329.5914     -20070.5      
    196600   142.91672      284.98778     -2335.8115      6.2255479     -2329.586      -22994.657    
    196650   137.28338      273.75443     -2335.5739      5.9801558     -2329.5937     -17956.195    
    196700   148.32831      295.77893     -2336.0612      6.4612802     -2329.5999     -22319.842    
    196750   147.14109      293.41152     -2336.0141      6.4095643     -2329.6045     -20246.978    
    196800   145.52135      290.18162     -2335.9425      6.3390072     -2329.6035     -18449.721    
    196850   135.7309       270.65866     -2335.5082      5.9125289     -2329.5957     -20544.724    
    196900   140.34927      279.86808     -2335.7128      6.1137082     -2329.5991     -20731.884    
    196950   136.25771      271.70915     -2335.537       5.9354768     -2329.6016     -20636.329    
    197000   142.48202      284.12095     -2335.8062      6.206612      -2329.5996     -20853.107    
    197050   147.353        293.83409     -2336.016       6.4187954     -2329.5972     -20725.039    
    197100   158.21906      315.50192     -2336.4916      6.8921282     -2329.5995     -20928.161    
    197150   140.23053      279.63129     -2335.7072      6.1085356     -2329.5987     -20729.657    
    197200   146.18656      291.50812     -2335.9634      6.3679845     -2329.5954     -21390.96     
    197250   153.62741      306.34579     -2336.2763      6.6921128     -2329.5842     -20070.333    
    197300   124.28952      247.84361     -2334.9961      5.4141348     -2329.5819     -20494.754    
    197350   148.91824      296.95532     -2336.0761      6.4869783     -2329.5891     -20888.127    
    197400   143.47279      286.09663     -2335.8338      6.2497708     -2329.584      -22631.628    
    197450   147.51827      294.16365     -2336.0139      6.4259946     -2329.5879     -20272.786    
    197500   133.3718       265.95441     -2335.3847      5.8097647     -2329.5749     -20271.333    
    197550   139.4126       278.00028     -2335.6481      6.0729062     -2329.5751     -18296.903    
    197600   144.80069      288.74456     -2335.8832      6.3076147     -2329.5756     -23290.09     
    197650   143.82467      286.79831     -2335.8332      6.2650989     -2329.5681     -21494.832    
    197700   146.86752      292.866       -2335.9641      6.3976473     -2329.5664     -21353.974    
    197750   141.31891      281.80161     -2335.7136      6.1559463     -2329.5577     -19895.718    
    197800   148.22429      295.57151     -2336.0025      6.4567492     -2329.5458     -21935.54     
    197850   153.59388      306.27892     -2336.2363      6.6906521     -2329.5457     -21850.038    
    197900   146.03097      291.19786     -2335.8964      6.3612069     -2329.5352     -23000.277    
    197950   150.04508      299.20232     -2336.072       6.5360641     -2329.536      -23505.332    
    198000   147.06897      293.26771     -2335.9347      6.4064227     -2329.5282     -23255.035    
    198050   159.03096      317.12092     -2336.4589      6.9274952     -2329.5314     -21071.96     
    198100   156.192        311.45978     -2336.3234      6.8038279     -2329.5196     -21305.285    
    198150   153.42847      305.94909     -2336.1933      6.683447      -2329.5098     -21522.387    
    198200   143.8971       286.94274     -2335.7723      6.2682539     -2329.5041     -21428.994    
    198250   148.28147      295.68554     -2335.9559      6.4592401     -2329.4967     -22476.375    
    198300   145.09222      289.3259      -2335.8124      6.320314      -2329.4921     -21005.519    
    198350   156.78647      312.64521     -2336.3181      6.8297235     -2329.4884     -21529.796    
    198400   154.51613      308.11797     -2336.2087      6.7308262     -2329.4778     -19129.374    
    198450   133.72115      266.65104     -2335.2945      5.8249825     -2329.4696     -19520.664    
    198500   157.75022      314.56701     -2336.3443      6.8717052     -2329.4726     -20454.071    
    198550   144.17339      287.49369     -2335.741       6.2802895     -2329.4607     -20350.296    
    198600   155.65449      310.38794     -2336.2421      6.7804136     -2329.4616     -20477.556    
    198650   161.08531      321.21745     -2336.4707      7.0169839     -2329.4537     -20834.403    
    198700   144.37756      287.90082     -2335.7308      6.2891831     -2329.4416     -19181.217    
    198750   148.18434      295.49186     -2335.8957      6.4550091     -2329.4407     -19654.938    
    198800   148.24022      295.60328     -2335.8903      6.4574432     -2329.4329     -17591.736    
    198850   134.06251      267.33174     -2335.2591      5.8398524     -2329.4192     -19727.228    
    198900   146.07018      291.27603     -2335.7899      6.3629146     -2329.427      -21692.315    
    198950   149.0091       297.13649     -2335.9099      6.4909362     -2329.4189     -22318.073    
    199000   140.71293      280.59324     -2335.539       6.1295493     -2329.4095     -18927.668    
    199050   139.64001      278.45374     -2335.4809      6.082812      -2329.398      -20416.906    
    199100   142.43442      284.02604     -2335.592       6.2045387     -2329.3874     -21835.136    
    199150   149.41201      297.93992     -2335.8911      6.5084871     -2329.3826     -21742.853    
    199200   143.01613      285.18602     -2335.6006      6.2298785     -2329.3707     -22516.216    
    199250   144.74079      288.62512     -2335.6682      6.3050056     -2329.3632     -17967.295    
    199300   146.59266      292.3179      -2335.7387      6.3856742     -2329.353      -22680.227    
    199350   150.37092      299.85207     -2335.8951      6.5502579     -2329.3448     -22430.362    
    199400   151.73271      302.5676      -2335.9494      6.6095785     -2329.3398     -22324.828    
    199450   136.83539      272.8611      -2335.2918      5.9606411     -2329.3311     -19090.621    
    199500   129.26062      257.75638     -2334.9488      5.630679      -2329.3181     -23967.313    
    199550   165.40116      329.82362     -2336.5181      7.2049853     -2329.3131     -20865.475    
    199600   139.66024      278.49408     -2335.3847      6.0836934     -2329.301      -20213.373    
    199650   146.33243      291.79898     -2335.6692      6.3743383     -2329.2949     -19101.078    
    199700   158.29998      315.66327     -2336.1876      6.895653      -2329.292      -19984.297    
    199750   145.14001      289.4212      -2335.6037      6.3223959     -2329.2813     -22051.933    
    199800   158.26018      315.58391     -2336.1746      6.8939194     -2329.2806     -19318.216    
    199850   143.16368      285.48023     -2335.5041      6.2363056     -2329.2678     -19508.839    
    199900   150.04668      299.20551     -2335.7888      6.5361337     -2329.2526     -20939.154    
    199950   138.7119       276.60302     -2335.2868      6.042383      -2329.2444     -19557.769    
    200000   149.85411      298.82151     -2335.7641      6.5277454     -2329.2364     -18472.551    
colvars: Saving collective variables state to "out.colvars.state".
colvars:   Writing TI PMF to file "out.metadynamics1.ti.pmf".
Loop time of 947.611 on 4 procs for 200000 steps with 338 atoms

Performance: 9.118 ns/day, 2.632 hours/ns, 211.057 timesteps/s, 71.337 katom-step/s
143.3% CPU use with 4 MPI tasks x 1 OpenMP threads

MPI task timing breakdown:
Section |  min time  |  avg time  |  max time  |%varavg| %total
---------------------------------------------------------------
Pair    | 770.99     | 837.86     | 911.38     | 178.3 | 88.42
Neigh   | 0.12802    | 2.2542     | 3.9355     |  94.3 |  0.24
Comm    | 11.306     | 70.49      | 106.96     | 437.6 |  7.44
Output  | 4.5531     | 5.4697     | 6.5168     |  38.8 |  0.58
Modify  | 12.255     | 28.802     | 74.209     | 489.2 |  3.04
Other   |            | 2.734      |            |       |  0.29

Nlocal:           84.5 ave         128 max           1 min
Histogram: 1 0 0 0 0 0 0 1 1 1
Nghost:        1155.25 ave        1687 max         641 min
Histogram: 1 0 0 0 1 1 0 0 0 1
Neighs:              0 ave           0 max           0 min
Histogram: 4 0 0 0 0 0 0 0 0 0
FullNghs:        15783 ave       27033 max          76 min
Histogram: 1 0 0 0 1 0 0 0 1 1

Total # of neighbors = 63132
Ave neighs/atom = 186.78107
Neighbor list builds = 3840
Dangerous builds = 0
System init for write_data ...
Generated 0 of 6 mixed pair_coeff terms from geometric mixing rule

CITE-CITE-CITE-CITE-CITE-CITE-CITE-CITE-CITE-CITE-CITE-CITE-CITE

Your simulation uses code contributions which should be cited:
- Colvars module (Fiorin2013, plus other works listed for specific features)
The log file lists these citations in BibTeX format.

CITE-CITE-CITE-CITE-CITE-CITE-CITE-CITE-CITE-CITE-CITE-CITE-CITE

Total wall time: 0:16:12
