LAMMPS (2 Aug 2023)
OMP_NUM_THREADS environment is not set. Defaulting to 1 thread. (src/comm.cpp:98)
  using 1 OpenMP thread(s) per MPI task
Loaded 1 plugins from /work/home/baoergen22b/apprepo/deepmd/v2.2.9-dtk23.10/app/lib/deepmd_lmp
Reading data file ...
  orthogonal box = (0 0 0) to (11.328 12.015 32)
  1 by 1 by 4 MPI processor grid
  reading atoms ...
  339 atoms
  read_data CPU = 0.045 seconds
Summary of lammps deepmd module ...
  >>> Info of deepmd-kit:
  installed to:       /work/home/wys974137909/shangcheng/deepmd-kit/20240715/deepmd-kit_v2.2.9/install
  source:             v2.2.9
  source branch:      HEAD
  source commit:      be43748
  source commit at:   2024-02-04 13:44:12 +0800
  support model ver.: 1.1 
  build variant:      rocm
  build with tf inc:  /work/home/wys974137909/shangcheng/miniconda3/envs/deepmd-kit-v2.2.9/lib/python3.8/site-packages/tensorflow/include;/work/home/wys974137909/shangcheng/miniconda3/envs/deepmd-kit-v2.2.9/lib/python3.8/site-packages/tensorflow/include
  build with tf lib:  /work/home/wys974137909/shangcheng/miniconda3/envs/deepmd-kit-v2.2.9/lib/python3.8/site-packages/tensorflow/lib/libtensorflow_cc.so
  set tf intra_op_parallelism_threads: 0
  set tf inter_op_parallelism_threads: 0
  >>> Info of lammps module:
  use deepmd-kit at:  /work/home/wys974137909/shangcheng/deepmd-kit/20240715/deepmd-kit_v2.2.9/install
  source:             v2.2.9
  source branch:      HEAD
  source commit:      be43748
  source commit at:   2024-02-04 13:44:12 +0800
  build float prec:   double
  build with tf inc:  /work/home/wys974137909/shangcheng/miniconda3/envs/deepmd-kit-v2.2.9/lib/python3.8/site-packages/tensorflow/include;/work/home/wys974137909/shangcheng/miniconda3/envs/deepmd-kit-v2.2.9/lib/python3.8/site-packages/tensorflow/include
  build with tf lib:  /work/home/wys974137909/shangcheng/miniconda3/envs/deepmd-kit-v2.2.9/lib/python3.8/site-packages/tensorflow/lib/libtensorflow_cc.so
INVALID_ARGUMENT: Tensor spin_attr/ntypes_spin:0, specified in either feed_devices or fetch_devices was not found in the Graph
INVALID_ARGUMENT: Tensor spin_attr/ntypes_spin:0, specified in either feed_devices or fetch_devices was not found in the Graph
INVALID_ARGUMENT: Tensor spin_attr/ntypes_spin:0, specified in either feed_devices or fetch_devices was not found in the Graph
  >>> Info of model(s):
  using   1 model(s): graph-compress.pb 
  rcut in model:      6
  ntypes in model:    4
INVALID_ARGUMENT: Tensor spin_attr/ntypes_spin:0, specified in either feed_devices or fetch_devices was not found in the Graph
168 atoms in group fixed
171 atoms in group mobile

CITE-CITE-CITE-CITE-CITE-CITE-CITE-CITE-CITE-CITE-CITE-CITE-CITE

Your simulation uses code contributions which should be cited:
- GPU package (short-range, long-range and three-body potentials): doi:10.1016/j.cpc.2010.12.021, doi:10.1016/j.cpc.2011.10.012, doi:10.1016/j.cpc.2013.08.002, doi:10.1016/j.commatsci.2014.10.068, doi:10.1016/j.cpc.2016.10.020, doi:10.3233/APC200086
- USER-DEEPMD package:
The log file lists these citations in BibTeX format.

CITE-CITE-CITE-CITE-CITE-CITE-CITE-CITE-CITE-CITE-CITE-CITE-CITE

Generated 0 of 6 mixed pair_coeff terms from geometric mixing rule
Neighbor list info ...
  update: every = 1 steps, delay = 0 steps, check = yes
  max neighbors/atom: 2000, page size: 100000
  master list distance cutoff = 8
  ghost atom cutoff = 8
  binsize = 4, bins = 3 4 8
  1 neighbor lists, perpetual/occasional/extra = 1 0 0
  (1) pair deepmd, perpetual
      attributes: full, newton on
      pair build: full/bin/atomonly
      stencil: full/bin/3d
      bin: standard
Setting up Verlet run ...
  Unit style    : metal
  Current step  : 0
  Time step     : 0.0005
colvars: Creating proxy instance
colvars: ----------------------------------------------------------------------
colvars: Initializing the collective variables module, version 2023-05-01.
colvars: Please cite Fiorin et al, Mol Phys 2013:
colvars:   https://doi.org/10.1080/00268976.2013.813594
colvars: as well as all other papers listed below for individual features used.
colvars: This version was built with the C++11 standard or higher.
colvars: Using LAMMPS interface, version "2023-04-12".
colvars: ----------------------------------------------------------------------
colvars: Reading new configuration from file "pmf.in":
colvars: # units = "" [default]
colvars: # smp = on [default]
colvars: # colvarsTrajFrequency = 100 [default]
colvars: # colvarsRestartFrequency = 0 [default]
colvars: # scriptedColvarForces = off [default]
colvars: # scriptingAfterBiases = off [default]
colvars: ----------------------------------------------------------------------
colvars:   Initializing a new collective variable.
colvars:   # name = "d"
colvars:   Initializing a new "distance" component.
colvars:     # name = "" [default]
colvars:     # componentCoeff = 1 [default]
colvars:     # componentExp = 1 [default]
colvars:     # period = 0 [default]
colvars:     # wrapAround = 0 [default]
colvars:     # forceNoPBC = off [default]
colvars:     # scalable = on [default]
colvars:       Initializing atom group "group1".
colvars:       # name = "" [default]
colvars:       # centerToOrigin = off [default]
colvars:       # centerToReference = off [default]
colvars:       # rotateToReference = off [default]
colvars:       # atomsOfGroup = "" [default]
colvars:       # indexGroup = "" [default]
colvars:       # psfSegID =  [default]
colvars:       # atomsFile = "" [default]
colvars:       # dummyAtom = ( 0 , 0 , 0 ) [default]
colvars:       # enableFitGradients = on [default]
colvars:       # printAtomIDs = off [default]
colvars:       Atom group "group1" defined with 1 atoms requested.
colvars:       Initializing atom group "group2".
colvars:       # name = "" [default]
colvars:       # centerToOrigin = off [default]
colvars:       # centerToReference = off [default]
colvars:       # rotateToReference = off [default]
colvars:       # atomsOfGroup = "" [default]
colvars:       # indexGroup = "" [default]
colvars:       # psfSegID =  [default]
colvars:       # atomsFile = "" [default]
colvars:       # dummyAtom = ( 0 , 0 , 0 ) [default]
colvars:       # enableFitGradients = on [default]
colvars:       # printAtomIDs = off [default]
colvars:       Atom group "group2" defined with 1 atoms requested.
colvars:     # oneSiteSystemForce = off [default]
colvars:     # oneSiteTotalForce = off [default]
colvars:   All components initialized.
colvars:   # timeStepFactor = 1 [default]
colvars:   # width = 0.02
colvars:   # lowerBoundary = 0.5
colvars:   # upperBoundary = 2.2
colvars:   # hardLowerBoundary = on
colvars:   # hardUpperBoundary = on
colvars:   # expandBoundaries = off [default]
colvars:   # extendedLagrangian = off [default]
colvars:   # outputValue = on [default]
colvars:   # outputVelocity = off [default]
colvars:   # outputTotalForce = on
colvars:   # outputAppliedForce = on
colvars:   # subtractAppliedForce = off [default]
colvars:   # runAve = off [default]
colvars:   # corrFunc = off [default]
colvars: ----------------------------------------------------------------------
colvars: Collective variables initialized, 1 in total.
colvars: ----------------------------------------------------------------------
colvars:   Initializing a new "metadynamics" instance.
colvars:   # name = "metadynamics1" [default]
colvars:   # colvars = { d }
colvars:   # stepZeroData = off [default]
colvars:   # outputEnergy = off [default]
colvars:   # outputFreq = 0 [default]
colvars:   # timeStepFactor = 1 [default]
colvars:   # writeTISamples = on
colvars:   # writeTIPMF = on
colvars:   # hillWeight = 0.2
colvars:   # newHillFrequency = 500
colvars:   # gaussianSigmas =  [default]
colvars:   # hillWidth = 1
colvars:   Half-widths of the Gaussian hills (sigma's):
colvars:   d: 0.01
colvars:   # multipleReplicas = off [default]
colvars:   # useGrids = on [default]
colvars:   # gridsUpdateFrequency = 500 [default]
colvars:   # rebinGrids = off [default]
colvars:   # writeFreeEnergyFile = on [default]
colvars:   # keepHills = off [default]
colvars:   # keepFreeEnergyFiles = off [default]
colvars:   # writeHillsTrajectory = off [default]
colvars:   # wellTempered = off [default]
colvars:   # biasTemperature = 800
colvars:   # ebMeta = off [default]
colvars: ----------------------------------------------------------------------
colvars: Collective variables biases initialized, 1 in total.
colvars: ----------------------------------------------------------------------
colvars: Collective variables module (re)initialized.
colvars: ----------------------------------------------------------------------
colvars: Re-initialized atom group for variable "d":0/0. 1 atoms: total mass = 1.008, total charge = 4.65687e-310.
colvars: Re-initialized atom group for variable "d":0/1. 1 atoms: total mass = 1.008, total charge = 5.83367e-310.
colvars: The restart output state file will be "rest.colvars.state".
colvars: The final output state file will be "out.colvars.state".
Per MPI rank memory allocation (min/avg/max) = 3.124 | 3.146 | 3.16 Mbytes
   Step          Temp         c_mTemp         PotEng         KinEng         TotEng         Press     
         0   149.9571       298.15        -2247.8234      6.5516151     -2241.2718     -14783.352    
        50   130.59388      259.65136     -2246.9748      5.7056372     -2241.2691     -14750.29     
       100   136.00624      270.4124      -2247.2119      5.9421028     -2241.2698     -12293.107    
       150   139.24855      276.85889     -2247.3517      6.0837594     -2241.2679     -12463.858    
       200   139.16439      276.69154     -2247.3434      6.0800821     -2241.2633     -11075.272    
       250   143.05921      284.43537     -2247.5105      6.2502468     -2241.2602     -15547.657    
       300   149.27765      296.79909     -2247.7879      6.5219298     -2241.2659     -11860.766    
       350   142.11711      282.56225     -2247.4722      6.2090865     -2241.2631     -13287.112    
       400   129.52687      257.52989     -2246.9093      5.6590198     -2241.2503     -13085.54     
       450   142.19171      282.71058     -2247.4635      6.2123457     -2241.2512     -12825.463    
       500   144.61573      287.5301      -2247.5683      6.3182509     -2241.25       -11131.133    
       550   134.05437      266.53163     -2246.9736      5.8568259     -2241.1168     -13853.601    
       600   141.10236      280.54469     -2247.2413      6.1647521     -2241.0765     -15870.631    
       650   147.26652      292.80049     -2247.4244      6.4340636     -2240.9903     -14057.632    
       700   140.32321      278.99556     -2247.0439      6.130711      -2240.9132     -11776.719    
       750   143.18063      284.67677     -2247.1075      6.2555514     -2240.8519     -13394.808    
       800   160.65292      319.41581     -2247.7379      7.0189147     -2240.719      -15100.155    
       850   162.92479      323.93282     -2247.8293      7.1181725     -2240.7111     -12429.917    
       900   136.97729      272.34308     -2246.6657      5.9845281     -2240.6811     -13787.51     
       950   151.78626      301.78679     -2247.3112      6.6315307     -2240.6797     -13515.228    
      1000   146.8398       291.95207     -2247.0924      6.4154204     -2240.6769     -12061.151    
      1050   147.20089      292.67001     -2246.9681      6.4311965     -2240.5369     -13737.063    
      1100   146.26235      290.80397     -2246.972       6.3901917     -2240.5818     -14782.534    
      1150   148.81296      295.87519     -2246.8832      6.5016278     -2240.3816     -13184.191    
      1200   146.21374      290.70732     -2246.7108      6.3880681     -2240.3228     -11564.781    
      1250   164.56661      327.19714     -2247.5126      7.1899036     -2240.3227     -14842.839    
      1300   180.19066      358.26143     -2247.3988      7.8725171     -2239.5262     -10337.745    
      1350   159.69227      317.5058      -2246.4913      6.9769439     -2239.5143     -10724.357    
      1400   149.59854      297.43711     -2245.3061      6.5359498     -2238.7702     -11453.719    
      1450   174.83124      347.60564     -2246.4092      7.6383645     -2238.7708     -13037.04     
      1500   172.62453      343.21818     -2246.309       7.5419535     -2238.767      -12245.715    
      1550   164.4574       326.98001     -2245.9486      7.1851322     -2238.7634     -12865.578    
      1600   166.89265      331.82186     -2246.0477      7.291528      -2238.7562     -8669.5572    
      1650   158.50141      315.1381      -2245.68        6.9249154     -2238.7551     -13901.359    
      1700   161.65574      321.40965     -2245.8192      7.0627279     -2238.7564     -14564.044    
      1750   163.56887      325.21341     -2245.9057      7.1463124     -2238.7594     -12817.83     
      1800   176.32895      350.58345     -2246.3322      7.7037994     -2238.6284     -11795.698    
      1850   166.01932      330.08546     -2245.874       7.2533721     -2238.6206     -12053.161    
      1900   188.40811      374.59965     -2246.1045      8.231537      -2237.873      -13304.932    
      1950   182.15982      362.17658     -2245.9589      7.9585494     -2238.0003     -13382.697    
      2000   180.13968      358.16007     -2245.6119      7.8702899     -2237.7416     -13002.09     
      2050   201.24921      400.13078     -2244.599       8.7925636     -2235.8064     -14594.921    
      2100   198.79124      395.24376     -2244.4971      8.6851751     -2235.8119     -13575.929    
      2150   191.77038      381.28463     -2244.0808      8.3784342     -2235.7023     -12792.073    
      2200   176.64622      351.21426     -2243.5181      7.7176609     -2235.8004     -12767.741    
      2250   196.67712      391.04038     -2244.3755      8.5928092     -2235.7827     -15718.433    
      2300   183.35342      364.54974     -2243.8254      8.0106979     -2235.8147     -9839.8552    
      2350   193.76853      385.25742     -2244.3171      8.4657332     -2235.8514     -13864.681    
      2400   197.8301       393.33279     -2244.5282      8.6431831     -2235.885      -14994.916    
      2450   206.55516      410.68026     -2244.9599      9.0243804     -2235.9355     -9155.0114    
      2500   220.40008      438.20721     -2245.6116      9.6292637     -2235.9823     -13841.045    
      2550   212.0494       421.60411     -2245.2932      9.2644233     -2236.0287     -15685.373    
      2600   180.03649      357.9549      -2243.9513      7.8657814     -2236.0855     -9318.573     
      2650   203.13055      403.87132     -2245.0154      8.8747592     -2236.1406     -14664.364    
      2700   191.19819      380.14699     -2244.7861      8.3534353     -2236.4327     -13667.856    
      2750   173.89242      345.73905     -2244.0916      7.5973476     -2236.4943     -14735.367    
      2800   181.62915      361.12148     -2244.4958      7.9353646     -2236.5604     -11131.293    
      2850   191.95581      381.65331     -2245.0248      8.3865356     -2236.6383     -15910.311    
      2900   174.20055      346.35167     -2244.3064      7.6108095     -2236.6956     -15169.202    
      2950   179.53961      356.96698     -2244.6079      7.8440726     -2236.7639     -9283.3006    
      3000   173.45551      344.87036     -2244.4106      7.5782588     -2236.8323     -14174.395    
      3050   188.33859      374.46144     -2245.1291      8.2284997     -2236.9006     -12304.804    
      3100   197.63605      392.94697     -2245.5985      8.6347049     -2236.9638     -11605.365    
      3150   181.39036      360.64672     -2244.9527      7.924932      -2237.0278     -15646.425    
      3200   189.05146      375.87878     -2245.3521      8.2596448     -2237.0924     -12708.244    
      3250   188.42012      374.62354     -2245.3815      8.2320617     -2237.1495     -13370.508    
      3300   184.24941      366.33118     -2245.25        8.0498436     -2237.2002     -14036.881    
      3350   210.32628      418.17813     -2245.4266      9.1891402     -2236.2375     -10816.706    
      3400   201.87097      401.36698     -2244.3792      8.8197283     -2235.5594     -10667.967    
      3450   211.43849      420.38947     -2243.8711      9.2377326     -2234.6334     -15953.327    
      3500   189.61046      376.99022     -2242.9398      8.2840677     -2234.6557     -14927.033    
      3550   209.67391      416.88107     -2242.6602      9.1606384     -2233.4996     -15721.953    
      3600   226.97185      451.27345     -2243.4936      9.9163842     -2233.5772     -12329.378    
      3650   241.95925      481.07192     -2244.2095      10.571182     -2233.6383     -11712.83     
      3700   221.44141      440.27763     -2243.3611      9.6747596     -2233.6863     -11733.582    
      3750   182.7668       363.3834      -2241.711       7.9850684     -2233.7259     -12939.233    
      3800   221.66457      440.72132     -2243.5009      9.6845094     -2233.8164     -10229.929    
      3850   215.89098      429.24208     -2243.2942      9.4322618     -2233.862      -14563.305    
      3900   188.8324       375.44324     -2242.1489      8.2500742     -2233.8989     -11366.974    
      3950   207.00634      411.5773      -2243.0106      9.0440922     -2233.9665     -13592.386    
      4000   215.29737      428.06182     -2243.442       9.4063266     -2234.0357     -14986.125    
      4050   205.85905      409.29624     -2243.079       8.9939675     -2234.085      -12263.791    
      4100   186.05347      369.91807     -2242.2637      8.1286628     -2234.135      -14932.038    
      4150   193.53339      384.78991     -2242.6541      8.4554599     -2234.1986     -11243.026    
      4200   198.72459      395.11124     -2242.9429      8.6822631     -2234.2606     -14569.945    
      4250   210.13429      417.79641     -2243.4986      9.1807522     -2234.3179     -12980.394    
      4300   210.59517      418.71275     -2243.5767      9.200888      -2234.3758     -12468.352    
      4350   223.49995      444.3705      -2244.2142      9.7646971     -2234.4495     -12670.62     
      4400   215.3667       428.19968     -2243.9141      9.409356      -2234.5047     -12548.958    
      4450   211.98869      421.4834      -2243.8418      9.2617709     -2234.5801     -10957.119    
      4500   194.54683      386.80488     -2243.1251      8.4997373     -2234.6254     -14551.632    
      4550   205.21428      408.01428     -2243.219       8.9657974     -2234.2532     -11811.36     
      4600   220.09554      437.60173     -2242.8141      9.6159586     -2233.1982     -13349.485    
      4650   201.38829      400.40731     -2242.0698      8.7986401     -2233.2711     -10728.909    
      4700   225.39313      448.13457     -2243.1949      9.8474097     -2233.3475     -10893.559    
      4750   196.09581      389.88461     -2241.9748      8.5674121     -2233.4074     -15116.331    
      4800   215.41193      428.2896      -2242.9129      9.411332      -2233.5016     -12861.767    
      4850   207.8506       413.25589     -2242.6505      9.0809778     -2233.5695     -14739.185    
      4900   213.97087      425.42443     -2243.0046      9.348372      -2233.6562     -13283.725    
      4950   210.28177      418.08964     -2242.9161      9.1871957     -2233.7289     -13757.851    
      5000   205.7167       409.0132      -2242.7935      8.9877479     -2233.8058     -9750.597     
      5050   208.11014      413.77192     -2242.9808      9.0923171     -2233.8885     -13300.848    
      5100   220.20476      437.81888     -2243.5976      9.6207304     -2233.9769     -11018.746    
      5150   211.33652      420.18672     -2243.2787      9.2332774     -2234.0455     -16198.668    
      5200   218.05935      433.55329     -2243.6608      9.5269973     -2234.1338     -11141.959    
      5250   193.53767      384.79843     -2242.6535      8.4556472     -2234.1979     -13019.575    
      5300   199.10702      395.8716      -2242.9785      8.6989715     -2234.2796     -13115.791    
      5350   226.61276      450.55948     -2244.268       9.9006952     -2234.3673     -12758.168    
      5400   201.29076      400.21339     -2243.2282      8.794379      -2234.4338     -14294.643    
      5450   197.8499       393.37216     -2243.1635      8.6440483     -2234.5195     -13617.887    
      5500   186.89646      371.59413     -2242.7559      8.165493      -2234.5904     -12262.492    
      5550   185.53395      368.88515     -2242.7584      8.1059652     -2234.6524     -15739.433    
      5600   200.38604      398.4146      -2243.4737      8.754852      -2234.7189     -10662.227    
      5650   173.42414      344.808       -2242.3635      7.5768885     -2234.7866     -17354.343    
      5700   183.61537      365.07056     -2242.8797      8.0221426     -2234.8575     -10117.84     
      5750   171.06995      340.12732     -2242.3973      7.4740341     -2234.9233     -12707.01     
      5800   191.64984      381.04497     -2243.3622      8.3731678     -2234.989      -10546.882    
      5850   185.91182      369.63644     -2243.1733      8.1224742     -2235.0508     -14594.967    
      5900   190.69551      379.14755     -2243.4542      8.3314735     -2235.1227     -13802.943    
      5950   184.59744      367.02314     -2243.2579      8.0650489     -2235.1929     -11367.669    
      6000   192.77702      383.28608     -2243.6781      8.4224144     -2235.2557     -13725.017    
      6050   184.3729       366.57671     -2243.3785      8.0552389     -2235.3233     -12751.392    
      6100   176.23494      350.39653     -2243.0842      7.6996922     -2235.3845     -12791.308    
      6150   188.65463      375.0898      -2243.691       8.2423074     -2235.4486     -13270.312    
      6200   187.23262      372.2625      -2243.6932      8.1801797     -2235.513      -13574.762    
      6250   178.30866      354.51957     -2243.3639      7.7902928     -2235.5736     -15388.171    
      6300   174.01584      345.98444     -2243.2417      7.6027397     -2235.639      -11871.604    
      6350   183.19091      364.22663     -2243.7034      8.0035977     -2235.6998     -10613.754    
      6400   180.77323      359.41972     -2243.6628      7.8979698     -2235.7648     -12911.284    
      6450   178.68367      355.26517     -2243.63        7.8066767     -2235.8234     -15477.194    
      6500   187.01974      371.83924     -2244.0527      8.170879      -2235.8818     -12922.247    
      6550   187.19879      372.19523     -2244.1254      8.1787017     -2235.9467     -12740.578    
      6600   187.42081      372.63668     -2244.1908      8.188402      -2236.0024     -13155.704    
      6650   188.63303      375.04685     -2244.3117      8.2413637     -2236.0703     -12156.562    
      6700   179.11076      356.11433     -2243.95        7.8253363     -2236.1246     -12196.915    
      6750   179.52165      356.93128     -2244.0281      7.8432881     -2236.1848     -14707.651    
      6800   177.95991      353.82617     -2244.0274      7.7750558     -2236.2523     -12188.627    
      6850   168.48233      334.98251     -2243.6733      7.3609809     -2236.3124     -14231.053    
      6900   184.31644      366.46444     -2244.429       8.052772      -2236.3762     -12749.682    
      6950   174.11371      346.17902     -2244.0392      7.6070156     -2236.4322     -13181.654    
      7000   167.80261      333.63107     -2243.8211      7.331284      -2236.4898     -11534.054    
      7050   176.92894      351.77636     -2244.2742      7.7300128     -2236.5442     -12652.476    
      7100   176.45314      350.83036     -2244.3165      7.7092251     -2236.6073     -14318.437    
      7150   165.80976      329.66882     -2243.9113      7.2442168     -2236.6671     -13894.411    
      7200   166.33598      330.71506     -2243.9891      7.267207      -2236.7219     -11349.357    
      7250   177.3814       352.67596     -2244.5361      7.7497809     -2236.7864     -11594.03     
      7300   175.0172       347.97537     -2244.4884      7.6464889     -2236.8419     -10982.561    
      7350   154.79474      307.76837     -2243.6527      6.7629712     -2236.8897     -13045.887    
      7400   160.97233      320.05087     -2243.9831      7.0328696     -2236.9502     -15691.493    
      7450   178.22374      354.35072     -2244.7918      7.7865824     -2237.0052     -14112.441    
      7500   188.30902      374.40264     -2245.2944      8.2272078     -2237.0672     -11975.279    
      7550   172.86798      343.70223     -2244.6746      7.55259       -2237.122      -15684.417    
      7600   175.41487      348.76604     -2244.8342      7.6638633     -2237.1703     -15632.399    
      7650   185.44794      368.71414     -2245.3423      8.1022073     -2237.2401     -12676.484    
      7700   164.36004      326.78644     -2244.4585      7.1808786     -2237.2776     -16673.751    
      7750   190.65674      379.07046     -2245.6665      8.3297795     -2237.3368     -15029.144    
      7800   159.71037      317.5418      -2244.3614      6.9777348     -2237.3836     -17352.406    
      7850   153.27244      304.74167     -2244.1296      6.696462      -2237.4332     -10890.517    
      7900   177.64025      353.19062     -2245.2501      7.7610901     -2237.489      -16168.494    
      7950   180.16244      358.20531     -2245.4194      7.8712841     -2237.5481     -14340.029    
      8000   182.74226      363.33461     -2245.5862      7.9839963     -2237.6022     -10379.99     
      8050   178.03509      353.97564     -2245.4435      7.7783403     -2237.6651     -10558.607    
      8100   162.24325      322.57776     -2244.8037      7.0883963     -2237.7153     -13087.253    
      8150   166.9154       331.86709     -2245.0563      7.292522      -2237.7638     -11422.846    
      8200   170.04854      338.09652     -2245.2557      7.4294088     -2237.8263     -11760.278    
      8250   164.78603      327.63339     -2245.0705      7.1994898     -2237.871      -14377.506    
      8300   159.06163      316.25194     -2244.8749      6.9493913     -2237.9255     -14462.473    
      8350   160.84675      319.80118     -2245.0039      7.0273829     -2237.9765     -15350.75     
      8400   153.89564      305.98075     -2244.7439      6.7236896     -2238.0202     -13394.575    
      8450   165.82116      329.69147     -2245.32        7.2447145     -2238.0753     -10088.557    
      8500   167.90195      333.82858     -2245.4595      7.3356242     -2238.1239     -11639.074    
      8550   175.21268      348.36403     -2245.8287      7.6550296     -2238.1736     -14715.135    
      8600   172.72477      343.41748     -2245.7634      7.5463328     -2238.2171     -14002.786    
      8650   176.85037      351.62015     -2245.9982      7.7265801     -2238.2716     -9605.1039    
      8700   157.30445      312.75826     -2245.1938      6.8726203     -2238.3212     -12299.062    
      8750   178.64734      355.19295     -2246.1705      7.8050896     -2238.3654     -14800.397    
      8800   160.90194      319.91092     -2245.4433      7.0297945     -2238.4135     -14253.732    
      8850   166.41878      330.87969     -2245.7302      7.2708246     -2238.4594     -12013.084    
      8900   171.31249      340.60954     -2245.9934      7.4846305     -2238.5088     -14610.138    
      8950   162.26467      322.62035     -2245.6395      7.0893321     -2238.5502     -14756.8      
      9000   165.60337      329.25847     -2245.8343      7.2351996     -2238.5991     -11603.106    
      9050   167.1963       332.42558     -2245.9499      7.3047944     -2238.6451     -15683.31     
      9100   169.27109      336.55076     -2246.0819      7.3954419     -2238.6864     -11097.662    
      9150   156.09992      310.36337     -2245.5525      6.8199943     -2238.7325     -12081.336    
      9200   172.872        343.71021     -2246.3237      7.5527653     -2238.7709     -13709.65     
      9250   158.48885      315.11312     -2245.7321      6.9243665     -2238.8077     -12898.104    
      9300   157.16489      312.48079     -2245.7223      6.866523      -2238.8558     -13077.728    
      9350   156.80062      311.75652     -2245.757       6.8506078     -2238.9064     -12448.933    
      9400   167.08615      332.20657     -2246.2453      7.2999819     -2238.9453     -14518.49     
      9450   154.61849      307.41795     -2245.7502      6.755271      -2238.9949     -11479.609    
      9500   159.90041      317.91964     -2246.0206      6.9860377     -2239.0346     -14703.704    
      9550   167.12975      332.29327     -2246.3844      7.301887      -2239.0825     -13182.305    
      9600   158.78606      315.70406     -2246.0607      6.9373519     -2239.1233     -13790.418    
      9650   158.6636       315.46056     -2246.1001      6.9320013     -2239.1681     -14059.082    
      9700   152.3673       302.94204     -2245.8631      6.6569165     -2239.2062     -11772.29     
      9750   157.14597      312.44316     -2246.1102      6.8656962     -2239.2445     -13911.292    
      9800   164.35956      326.78548     -2246.471       7.1808575     -2239.2901     -13057.835    
      9850   156.19696      310.55631     -2246.1479      6.8242341     -2239.3236     -15647.494    
      9900   165.01019      328.07908     -2246.5782      7.2092833     -2239.3689     -11733.37     
      9950   159.3811       316.88713     -2246.3711      6.963349      -2239.4078     -13876.647    
     10000   156.97081      312.0949      -2246.3103      6.8580435     -2239.4523     -13357.418    
     10050   162.36594      322.82168     -2246.5895      7.0937562     -2239.4957     -11813.851    
     10100   147.52697      293.31833     -2245.9755      6.445443      -2239.53       -12872.825    
     10150   162.9821       324.04677     -2246.696       7.1206765     -2239.5753     -15237.013    
     10200   169.83086      337.6637      -2247.035       7.419898      -2239.6151     -11112.538    
     10250   144.20236      286.70823     -2245.9407      6.300191      -2239.6405     -14233.671    
     10300   162.374        322.83772     -2246.7766      7.0941087     -2239.6825     -13327.462    
     10350   157.29908      312.74758     -2246.5996      6.8723856     -2239.7272     -12753.337    
     10400   152.92631      304.05348     -2246.4425      6.6813395     -2239.7612     -11484.554    
     10450   152.39488      302.99687     -2246.4501      6.6581214     -2239.792      -11242.174    
     10500   157.33775      312.82447     -2246.7041      6.8740751     -2239.83       -12151.89     
     10550   148.00944      294.27759     -2246.3255      6.4665219     -2239.859      -11571.403    
     10600   150.22622      298.68507     -2246.4575      6.5633727     -2239.8941     -13782.883    
     10650   142.05528      282.43932     -2246.1287      6.206385      -2239.9223     -13839.794    
     10700   151.9109       302.03462     -2246.6021      6.6369766     -2239.9651     -11705.046    
     10750   143.88073      286.06875     -2246.2858      6.286139      -2239.9997     -13840.355    
     10800   154.1088       306.40456     -2246.7707      6.7330025     -2240.0377     -13115.391    
     10850   148.42329      295.10042     -2246.5506      6.4846028     -2240.066      -15222.24     
     10900   146.91218      292.09598     -2246.5116      6.4185826     -2240.093      -14829.678    
     10950   153.00756      304.21504     -2246.8123      6.6848895     -2240.1274     -13113.526    
     11000   156.81209      311.77933     -2247.0106      6.8511091     -2240.1595     -14651.076    
     11050   158.16107      314.46142     -2247.1069      6.9100458     -2240.1969     -12178.108    
     11100   148.57254      295.39716     -2246.7124      6.4911236     -2240.2213     -14528.047    
     11150   146.64211      291.55902     -2246.6602      6.4067834     -2240.2534     -11937.48     
     11200   152.35715      302.92187     -2246.9503      6.6564731     -2240.2939     -12199.467    
     11250   136.32752      271.05118     -2246.2636      5.9561396     -2240.3074     -15742.378    
     11300   153.21091      304.61933     -2247.0384      6.6937737     -2240.3446     -13804.025    
     11350   149.10256      296.45097     -2246.8823      6.5142803     -2240.368      -12252.422    
     11400   138.86311      276.09254     -2246.4534      6.0669195     -2240.3865     -10516.453    
     11450   130.54564      259.55546     -2246.1142      5.7035299     -2240.4107     -10087.524    
     11500   141.02017      280.38127     -2246.6017      6.161161      -2240.4406     -11200.82     
     11550   142.8849       284.0888      -2246.7091      6.242631      -2240.4664     -10870.102    
     11600   142.55321      283.42932     -2246.7161      6.2281395     -2240.4879     -13629.713    
     11650   141.90633      282.14317     -2246.7042      6.1998773     -2240.5043     -15984.07     
     11700   147.51294      293.29043     -2246.9744      6.4448297     -2240.5295     -12495.049    
     11750   150.40208      299.03472     -2247.1235      6.5710562     -2240.5524     -14823.548    
     11800   156.24916      310.66009     -2247.4079      6.8265146     -2240.5814     -10911.683    
     11850   150.13405      298.50181     -2247.1624      6.5593459     -2240.603      -12391.68     
     11900   139.42461      277.20894     -2246.7082      6.0914514     -2240.6167     -15601.525    
     11950   148.60818      295.46803     -2247.1382      6.4926809     -2240.6455     -11645.317    
     12000   139.17658      276.71578     -2246.7356      6.0806148     -2240.655      -11664.106    
     12050   143.93031      286.16731     -2246.9644      6.2883048     -2240.6761     -15891.695    
     12100   138.15635      274.68732     -2246.7343      6.036041      -2240.6982     -12817.193    
     12150   143.45357      285.21944     -2246.9848      6.2674761     -2240.7173     -11647.355    
     12200   159.09423      316.31676     -2247.6859      6.9508155     -2240.735      -13887.154    
     12250   159.55476      317.2324      -2247.7297      6.9709361     -2240.7588     -10855.391    
     12300   136.33828      271.07258     -2246.722       5.9566098     -2240.7654     -13930.341    
     12350   142.15423      282.63606     -2247.002       6.2107083     -2240.7913     -11946.258    
     12400   130.4082       259.28219     -2246.5039      5.6975251     -2240.8064     -10696.972    
     12450   148.78646      295.8225      -2247.3294      6.50047       -2240.829      -11086.39     
     12500   144.51029      287.32046     -2247.163       6.3136443     -2240.8494     -15949.705    
     12550   147.83317      293.92713     -2247.3241      6.4588208     -2240.8653     -9744.3572    
     12600   152.33563      302.87907     -2247.5392      6.6555327     -2240.8836     -12319.091    
     12650   140.28933      278.92819     -2247.027       6.1292307     -2240.8977     -11760.242    
     12700   136.69313      271.77811     -2246.8843      5.9721133     -2240.9122     -20074.827    
     12750   145.08627      288.46564     -2247.27        6.3388087     -2240.9312     -12631.965    
     12800   149.50194      297.24504     -2247.4777      6.5317292     -2240.946      -11914.383    
     12850   142.42252      283.16947     -2247.1823      6.2224296     -2240.9599     -11685.088    
     12900   136.9095       272.2083      -2246.9482      5.9815664     -2240.9666     -18684.356    
     12950   145.34715      288.98434     -2247.3375      6.3502069     -2240.9873     -13226.872    
     13000   153.54142      305.27647     -2247.7103      6.7082137     -2241.002      -14206.865    
     13050   147.83897      293.93866     -2247.4706      6.459074      -2241.0116     -15248.643    
     13100   142.50453      283.33253     -2247.246       6.2260127     -2241.02       -11871.376    
     13150   144.0897       286.48422     -2247.3268      6.2952687     -2241.0315     -10554.016    
     13200   127.53185      253.56333     -2246.6112      5.5718576     -2241.0394     -12970.591    
     13250   149.47183      297.18516     -2247.5911      6.5304134     -2241.0607     -14020.248    
     13300   144.51678      287.33335     -2247.3785      6.3139276     -2241.0645     -13170.153    
     13350   153.44543      305.08561     -2247.7809      6.7040197     -2241.0768     -12887.671    
     13400   153.01675      304.23331     -2247.7771      6.685291      -2241.0918     -13614.891    
     13450   139.07636      276.51652     -2247.1735      6.0762361     -2241.0973     -12253.866    
     13500   147.42463      293.11485     -2247.5455      6.4409715     -2241.1045     -10840.103    
     13550   146.49528      291.26708     -2247.518       6.4003682     -2241.1176     -12330.918    
     13600   139.99108      278.33521     -2247.2416      6.1162005     -2241.1254     -13478.498    
     13650   144.6363       287.57099     -2247.4579      6.3191495     -2241.1387     -11586.43     
     13700   148.59406      295.43996     -2247.6396      6.4920641     -2241.1475     -11702.714    
     13750   147.13468      292.53836     -2247.5859      6.4283036     -2241.1576     -13311.38     
     13800   144.41654      287.13405     -2247.4672      6.3095482     -2241.1577     -14223.082    
     13850   143.43696      285.18643     -2247.433       6.2667507     -2241.1662     -10564.585    
     13900   141.34829      281.03365     -2247.346       6.1754967     -2241.1705     -14091.915    
     13950   128.63245      255.75158     -2246.7997      5.6199426     -2241.1798     -12984.337    
     14000   138.66504      275.69872     -2247.2432      6.0582657     -2241.1849     -15806.917    
     14050   146.3473       290.97287     -2247.5909      6.3939032     -2241.197      -14103.125    
     14100   138.27765      274.9285      -2247.2407      6.0413406     -2241.1994     -12783.412    
     14150   128.72583      255.93725     -2246.8287      5.6240226     -2241.2047     -11054.774    
     14200   142.38303      283.09097     -2247.4303      6.2207046     -2241.2096     -14384.436    
     14250   135.60982      269.62424     -2247.1374      5.9247835     -2241.2127     -13958.636    
     14300   135.71877      269.84085     -2247.1437      5.9295434     -2241.2142     -15030.969    
     14350   138.1871       274.74847     -2247.2534      6.0373846     -2241.216      -13364.062    
     14400   138.97797      276.3209      -2247.2892      6.0719375     -2241.2173     -15225.249    
     14450   142.80344      283.92683     -2247.4588      6.239072      -2241.2197     -12977.165    
     14500   122.80219      244.15965     -2246.5808      5.3652189     -2241.2156     -14828.898    
     14550   135.65165      269.70741     -2247.1663      5.9266111     -2241.2397     -14981.036    
     14600   135.24114      268.89122     -2247.1453      5.908676      -2241.2366     -14081.382    
     14650   132.29901      263.04156     -2247.0151      5.7801342     -2241.2349     -15476.685    
     14700   147.55847      293.38095     -2247.6868      6.4468189     -2241.24       -12897.46     
     14750   147.81096      293.88297     -2247.6889      6.4578504     -2241.2311     -14638.335    
     14800   144.44169      287.18407     -2247.5431      6.3106473     -2241.2324     -11675.647    
     14850   135.96678      270.33395     -2247.159       5.940379      -2241.2186     -15072.299    
     14900   138.28586      274.94483     -2247.2667      6.0416995     -2241.225      -13229.634    
     14950   143.66478      285.63939     -2247.5006      6.2767042     -2241.2239     -12725.326    
     15000   138.68833      275.74503     -2247.2773      6.0592832     -2241.218      -14474.814    
     15050   132.73028      263.89902     -2247.0063      5.7989764     -2241.2073     -16171.43     
     15100   138.57545      275.5206      -2247.255       6.0543516     -2241.2006     -13324.656    
     15150   138.51161      275.39367     -2247.2455      6.0515624     -2241.1939     -10675.152    
     15200   136.91101      272.21129     -2247.1656      5.9816321     -2241.1839     -14335.131    
     15250   145.20022      288.69221     -2247.5249      6.3437875     -2241.1811     -15115.119    
     15300   140.73163      279.8076      -2247.3149      6.1485551     -2241.1663     -10098.451    
     15350   135.99878      270.39757     -2247.1002      5.941777      -2241.1584     -14697.409    
     15400   133.35141      265.13398     -2246.9689      5.8261137     -2241.1428     -17653.152    
     15450   135.77626      269.95515     -2247.0632      5.932055      -2241.1311     -15186.285    
     15500   137.29543      272.97561     -2247.1202      5.9984274     -2241.1217     -12578.087    
     15550   134.62203      267.66027     -2246.9889      5.881627      -2241.1073     -14643.818    
     15600   141.1424       280.6243      -2247.2702      6.1665015     -2241.1037     -10637.11     
     15650   144.64773      287.59372     -2247.4067      6.3196491     -2241.0871     -13113.046    
     15700   150.57745      299.38341     -2247.652       6.5787182     -2241.0733     -13389.102    
     15750   143.43974      285.19195     -2247.3224      6.2668719     -2241.0555     -14842.667    
     15800   146.56497      291.40565     -2247.446       6.4034132     -2241.0426     -12588.558    
     15850   147.40592      293.07766     -2247.4702      6.4401543     -2241.0301     -14785.541    
     15900   137.66008      273.70064     -2247.0287      6.0143593     -2241.0144     -15655.322    
     15950   131.52543      261.50351     -2246.7412      5.7463369     -2240.9949     -13284.853    
     16000   146.74822      291.77        -2247.3934      6.4114195     -2240.9819     -18331.172    
     16050   144.4389       287.17851     -2247.2721      6.3105252     -2240.9616     -10638.625    
     16100   139.932        278.21775     -2247.0503      6.1136192     -2240.9367     -13718.128    
     16150   145.71977      289.7252      -2247.294       6.3664866     -2240.9275     -13800.981    
     16200   144.61219      287.52307     -2247.2237      6.3180964     -2240.9056     -12510.718    
     16250   147.81858      293.89812     -2247.3441      6.4581832     -2240.8859     -11032.278    
     16300   135.3025       269.01321     -2246.7751      5.9113568     -2240.8638     -15728.912    
     16350   138.19064      274.75552     -2246.8819      6.0375394     -2240.8443     -14650.848    
     16400   157.84912      313.84118     -2247.7202      6.8964166     -2240.8238     -11637.81     
     16450   146.90992      292.09148     -2247.2229      6.4184838     -2240.8044     -14650.804    
     16500   141.41249      281.1613      -2246.9653      6.1783016     -2240.787      -11865.068    
     16550   143.00051      284.31866     -2247.0103      6.247682      -2240.7626     -13402.079    
     16600   140.47806      279.30344     -2246.8825      6.1374766     -2240.7451     -14230.205    
     16650   139.96172      278.27684     -2246.8398      6.1149178     -2240.7249     -10170.051    
     16700   134.79982      268.01376     -2246.588       5.8893946     -2240.6986     -14936.827    
     16750   152.24057      302.69008     -2247.3358      6.6513797     -2240.6844     -13392.493    
     16800   150.71779      299.66243     -2247.2425      6.5848495     -2240.6576     -15121.878    
     16850   147.71182      293.68585     -2247.089       6.4535189     -2240.6354     -12844.094    
     16900   142.20267      282.73236     -2246.8214      6.2128244     -2240.6086     -13776.36     
     16950   136.74954      271.89026     -2246.5607      5.9745776     -2240.5861     -13654.531    
     17000   150.52193      299.27301     -2247.1477      6.5762923     -2240.5714     -13387.503    
     17050   154.24896      306.68323     -2247.2888      6.7391262     -2240.5496     -13862.258    
     17100   145.80943      289.90345     -2246.8881      6.3704036     -2240.5177     -13799.941    
     17150   145.94323      290.16948     -2246.8724      6.3762494     -2240.4961     -11280.998    
     17200   146.82748      291.92759     -2246.8884      6.4148824     -2240.4735     -14981.974    
     17250   157.47433      313.09602     -2247.3284      6.8800423     -2240.4484     -12824.882    
     17300   147.16369      292.59604     -2246.8471      6.4295712     -2240.4175     -17254.193    
     17350   149.43693      297.11577     -2246.9282      6.5288887     -2240.3993     -15272.818    
     17400   145.36968      289.02912     -2246.72        6.3511908     -2240.3688     -14379.711    
     17450   152.09083      302.39237     -2246.9924      6.6448378     -2240.3476     -14343.242    
     17500   152.66859      303.54109     -2246.9979      6.67008       -2240.3278     -10910.965    
     17550   147.68063      293.62384     -2246.7532      6.4521561     -2240.301      -13257.4      
     17600   140.52707      279.40089     -2246.4113      6.1396179     -2240.2717     -13997.108    
     17650   146.09561      290.47245     -2246.6383      6.382907      -2240.2554     -12351.593    
     17700   152.02157      302.25465     -2246.871       6.6418116     -2240.2292     -13489.423    
     17750   142.46088      283.24574     -2246.4239      6.2241055     -2240.1998     -15705.499    
     17800   143.56675      285.44448     -2246.4535      6.2724212     -2240.1811     -13478.633    
     17850   153.89362      305.97673     -2246.88        6.7236014     -2240.1564     -15500.632    
     17900   143.55379      285.41871     -2246.4003      6.2718549     -2240.1285     -15697.188    
     17950   149.01549      296.27786     -2246.6203      6.5104762     -2240.1098     -11655.147    
     18000   154.4938       307.17003     -2246.8372      6.7498233     -2240.0874     -12571.037    
     18050   158.35255      314.84214     -2246.9827      6.9184119     -2240.0643     -16486.082    
     18100   136.65289      271.6981      -2246.0108      5.9703551     -2240.0405     -11893.771    
     18150   147.18551      292.63943     -2246.443       6.4305247     -2240.0125     -14473.365    
     18200   153.65121      305.49477     -2246.7083      6.7130107     -2239.9953     -14497.461    
     18250   158.27081      314.67961     -2246.8935      6.9148403     -2239.9786     -12731.302    
     18300   152.41249      303.03188     -2246.6204      6.6588907     -2239.9615     -14551.35     
     18350   145.01633      288.32658     -2246.2725      6.335753      -2239.9367     -14330.828    
     18400   148.21779      294.69185     -2246.3932      6.4756248     -2239.9176     -10210.439    
     18450   153.07698      304.35306     -2246.5904      6.6879226     -2239.9024     -13365.616    
     18500   151.40073      301.02028     -2246.493       6.6146872     -2239.8783     -11479.879    
     18550   165.34356      328.7419      -2247.082       7.2238484     -2239.8582     -12646.345    
     18600   140.88447      280.11147     -2245.9891      6.1552323     -2239.8339     -13640.66     
     18650   155.50951      309.1895      -2246.6123      6.7941995     -2239.8181     -11203.854    
     18700   166.12724      330.30004     -2247.0556      7.2580872     -2239.7975     -13413.68     
     18750   160.46863      319.04939     -2246.7921      7.0108629     -2239.7812     -11872.257    
     18800   153.44409      305.08295     -2246.4642      6.7039612     -2239.7602     -11584.628    
     18850   156.70509      311.56658     -2246.5875      6.8464341     -2239.741      -12244.926    
     18900   147.10111      292.47161     -2246.1593      6.4268369     -2239.7325     -10066.295    
     18950   159.41104      316.94665     -2246.6732      6.9646569     -2239.7086     -14592.122    
     19000   157.69443      313.53363     -2246.5804      6.8896583     -2239.6907     -10524.74     
     19050   157.97298      314.08746     -2246.5753      6.9018284     -2239.6735     -12695.231    
     19100   152.39974      303.00653     -2246.3072      6.6583336     -2239.6489     -14728.932    
     19150   152.02252      302.25654     -2246.2796      6.6418531     -2239.6378     -13109.718    
     19200   162.90183      323.88717     -2246.7401      7.1171695     -2239.6229     -14807.029    
     19250   159.29396      316.71388     -2246.568       6.9595419     -2239.6085     -16122.293    
     19300   148.86363      295.97591     -2246.0912      6.5038412     -2239.5874     -14126.518    
     19350   164.27441      326.61618     -2246.7563      7.1771374     -2239.5792     -13474.72     
     19400   160.48777      319.08744     -2246.5779      7.0116991     -2239.5662     -10877.978    
     19450   143.94271      286.19198     -2245.8337      6.2888469     -2239.5449     -13516.885    
     19500   155.52977      309.22977     -2246.3351      6.7950845     -2239.54       -15242.073    
     19550   152.32862      302.86514     -2246.1731      6.6552267     -2239.5179     -11551.467    
     19600   148.79822      295.84587     -2246.0035      6.5009837     -2239.5025     -14066.638    
     19650   155.22144      308.61675     -2246.2765      6.7816138     -2239.4949     -14830.777    
     19700   157.63826      313.42195     -2246.3762      6.8872044     -2239.489      -12946.295    
     19750   145.00505      288.30416     -2245.7994      6.3352603     -2239.4642     -10589.635    
     19800   147.8595       293.97947     -2245.914       6.4599709     -2239.454      -12586.119    
     19850   161.7594       321.61574     -2246.5136      7.0672566     -2239.4463     -14440.511    
     19900   167.53489      333.09879     -2246.7523      7.3195876     -2239.4327     -14221.83     
     19950   158.39068      314.91794     -2246.339       6.9200775     -2239.4189     -14708.071    
     20000   156.73678      311.6296      -2246.2551      6.8478188     -2239.4073     -14162.268    
     20050   150.56231      299.35331     -2245.9693      6.5780568     -2239.3913     -14122.588    
     20100   163.15579      324.39209     -2246.5195      7.1282647     -2239.3913     -11789.178    
     20150   152.01276      302.23714     -2246.0116      6.6414269     -2239.3702     -17380.257    
     20200   145.19856      288.68889     -2245.7104      6.3437146     -2239.3666     -14086.068    
     20250   142.31959      282.96483     -2245.5793      6.2179326     -2239.3614     -13971.948    
     20300   153.30218      304.80081     -2246.0471      6.6977614     -2239.3493     -14269.099    
     20350   163.37025      324.81849     -2246.4804      7.1376345     -2239.3428     -15898.318    
     20400   144.15229      286.60867     -2245.6301      6.2980034     -2239.3321     -14740.751    
     20450   143.32208      284.95801     -2245.5815      6.2617314     -2239.3198     -16851.724    
     20500   150.49023      299.20998     -2245.8861      6.5749073     -2239.3112     -13900.278    
     20550   154.05257      306.29276     -2246.0322      6.7305459     -2239.3016     -12656.102    
     20600   162.34608      322.7822      -2246.3865      7.0928885     -2239.2936     -13613.967    
     20650   155.81472      309.79633     -2246.0884      6.8075341     -2239.2809     -17570.654    
     20700   138.44342      275.2581      -2245.3079      6.0485833     -2239.2593     -11824.608    
     20750   155.74997      309.66758     -2246.0609      6.804705      -2239.2562     -16010.741    
     20800   148.81695      295.8831      -2245.7419      6.5018018     -2239.2401     -14611.645    
     20850   152.01708      302.24572     -2245.8818      6.6416152     -2239.2402     -13840.381    
     20900   143.31851      284.95092     -2245.4928      6.2615756     -2239.2312     -13344.135    
     20950   150.76667      299.75961     -2245.8125      6.5869849     -2239.2255     -12369.126    
     21000   146.33845      290.95527     -2245.6047      6.3935165     -2239.2112     -14452.745    
     21050   165.67292      329.39674     -2246.4517      7.2382379     -2239.2134     -14591.85     
     21100   153.56427      305.3219      -2245.9095      6.7092121     -2239.2003     -11382.765    
     21150   164.6887       327.43988     -2246.3991      7.1952374     -2239.2039     -14213.242    
     21200   163.14921      324.37901     -2246.3227      7.1279772     -2239.1947     -13031.625    
     21250   159.53254      317.18823     -2246.1624      6.9699654     -2239.1925     -14192.452    
     21300   155.04269      308.26135     -2245.9633      6.7738042     -2239.1895     -12263.144    
     21350   150.29191      298.81568     -2245.7471      6.5662429     -2239.1809     -14805.189    
     21400   160.10563      318.32767     -2246.1788      6.9950038     -2239.1838     -10807.941    
     21450   160.4556       319.0235      -2246.1875      7.010294      -2239.1772     -14014.987    
     21500   171.01184      340.01178     -2246.6458      7.4714952     -2239.1743     -11939.076    
     21550   180.14582      358.17227     -2247.0467      7.8705579     -2239.1761     -11573.877    
     21600   166.70326      331.44531     -2246.4579      7.2832536     -2239.1746     -12981.514    
     21650   151.18152      300.58444     -2245.7669      6.60511       -2239.1618     -14603.968    
     21700   166.84763      331.73234     -2246.4494      7.289561      -2239.1598     -15217.462    
     21750   162.12682      322.34627     -2246.2505      7.0833094     -2239.1672     -13022.216    
     21800   169.87181      337.74513     -2246.5863      7.4216874     -2239.1646     -12836.297    
     21850   155.40878      308.98921     -2245.9594      6.7897984     -2239.1696     -14820.047    
     21900   148.09005      294.43785     -2245.6346      6.4700436     -2239.1645     -14379.646    
     21950   161.0849       320.27469     -2246.2058      7.0377879     -2239.1681     -12481.164    
     22000   159.40272      316.93012     -2246.1405      6.9642936     -2239.1762     -14225.501    
     22050   155.67915      309.52677     -2245.971       6.8016108     -2239.1694     -14874.167    
     22100   159.94546      318.00921     -2246.1636      6.9880058     -2239.1756     -12680.539    
     22150   171.32753      340.63944     -2246.6746      7.4852876     -2239.1894     -13539.648    
     22200   162.88509      323.85388     -2246.3057      7.1164379     -2239.1893     -12636.586    
     22250   159.61948      317.36108     -2246.1733      6.9737636     -2239.1995     -11820.062    
     22300   146.53696      291.34996     -2245.6081      6.4021895     -2239.2059     -13585.11     
     22350   154.22617      306.63792     -2245.9426      6.7381306     -2239.2044     -16424.262    
     22400   160.38581      318.88472     -2246.2203      7.0072446     -2239.213      -11202.194    
     22450   148.41939      295.09266     -2245.7104      6.4844325     -2239.226      -15099.504    
     22500   145.24514      288.78152     -2245.5737      6.34575       -2239.228      -12386.295    
     22550   139.51823      277.39506     -2245.3306      6.0955414     -2239.235      -14070.448    
     22600   139.94516      278.24391     -2245.3543      6.1141943     -2239.2401     -11140.881    
     22650   150.53736      299.30369     -2245.8313      6.5769666     -2239.2543     -14818.042    
     22700   162.36887      322.82752     -2246.3546      7.0938844     -2239.2607     -13008.956    
     22750   153.2952       304.78693     -2245.9691      6.6974566     -2239.2716     -15805.765    
     22800   161.39084      320.88296     -2246.3353      7.0511543     -2239.2842     -13045.532    
     22850   147.74885      293.75948     -2245.7474      6.4551368     -2239.2923     -17095.891    
     22900   150.76557      299.75742     -2245.8914      6.5869369     -2239.3044     -12051.396    
     22950   158.77258      315.67725     -2246.2558      6.9367629     -2239.319      -12547.245    
     23000   173.83099      345.61691     -2246.9171      7.5946635     -2239.3224     -15705.427    
     23050   163.62351      325.32203     -2246.4851      7.1486993     -2239.3364     -14527.396    
     23100   167.39749      332.8256      -2246.6591      7.3135845     -2239.3455     -11381.868    
     23150   159.56307      317.24893     -2246.3278      6.9712993     -2239.3565     -15056.617    
     23200   154.17552      306.53722     -2246.1151      6.7359177     -2239.3791     -13577.712    
     23250   153.44784      305.09042     -2246.0974      6.7041254     -2239.3933     -11724.663    
     23300   150.08449      298.40329     -2245.9592      6.5571809     -2239.402      -14193.254    
     23350   138.2917       274.95643     -2245.4576      6.0419544     -2239.4157     -12228.394    
     23400   155.98291      310.13072     -2246.2446      6.8148822     -2239.4297     -12212.826    
     23450   171.87286      341.72368     -2246.9548      7.509113      -2239.4457     -12753.697    
     23500   163.50084      325.07814     -2246.6039      7.1433402     -2239.4606     -12644.043    
     23550   151.92026      302.05322     -2246.1091      6.6373854     -2239.4718     -11899.528    
     23600   150.23867      298.70982     -2246.0528      6.5639166     -2239.4889     -13077.15     
     23650   155.58241      309.33444     -2246.3031      6.7973846     -2239.5057     -12951.286    
     23700   152.44359      303.09372     -2246.1852      6.6602494     -2239.5249     -13137.31     
     23750   161.71293      321.52336     -2246.6042      7.0652266     -2239.539      -14893.545    
     23800   157.40883      312.9658      -2246.4358      6.8771807     -2239.5586     -16517.652    
     23850   149.09211      296.43019     -2246.0841      6.5138237     -2239.5703     -13889.111    
     23900   146.97617      292.22321     -2246.0086      6.4213784     -2239.5872     -13673.957    
     23950   168.95983      335.9319      -2246.9889      7.381843      -2239.6071     -12766.699    
     24000   158.64764      315.42885     -2246.5558      6.9313043     -2239.6245     -12471.544    
     24050   152.80779      303.81785     -2246.3194      6.6761617     -2239.6433     -10530.373    
     24100   160.15122      318.41832     -2246.6622      6.9969956     -2239.6652     -12557.129    
     24150   140.37139      279.09135     -2245.8142      6.132816      -2239.6814     -14889.542    
     24200   148.53291      295.31837     -2246.1892      6.4893921     -2239.6998     -10931.271    
     24250   157.63217      313.40985     -2246.6158      6.8869384     -2239.7288     -12241.394    
     24300   160.8556       319.81878     -2246.7743      7.0277697     -2239.7466     -12751.794    
     24350   151.37071      300.96058     -2246.3789      6.6133755     -2239.7656     -14654.891    
     24400   162.34084      322.77178     -2246.8772      7.0926597     -2239.7845     -13012.927    
     24450   154.18573      306.55751     -2246.5455      6.7363635     -2239.8092     -17040.786    
     24500   152.59727      303.39929     -2246.4942      6.6669641     -2239.8272     -9078.1989    
     24550   147.18988      292.64812     -2246.2802      6.4307155     -2239.8495     -13317.596    
     24600   149.59816      297.43633     -2246.4086      6.5359328     -2239.8726     -15345.005    
     24650   158.83165      315.7947      -2246.8374      6.9393436     -2239.8981     -12410.736    
     24700   149.54731      297.33524     -2246.4502      6.5337114     -2239.9165     -10464.238    
     24750   156.37818      310.91662     -2246.7678      6.8321517     -2239.9357     -17017.242    
     24800   148.37056      294.99558     -2246.4458      6.4822993     -2239.9635     -11515.228    
     24850   161.92169      321.93843     -2247.0645      7.0743473     -2239.9901     -10738.192    
     24900   161.01803      320.14173     -2247.0402      7.0348664     -2240.0053     -14590.843    
     24950   154.31778      306.82005     -2246.7737      6.7421327     -2240.0315     -13289.356    
     25000   152.37695      302.96122     -2246.7115      6.6573379     -2240.0542     -12739.076    
     25050   156.36449      310.88941     -2246.9052      6.8315537     -2240.0737     -12245.137    
     25100   159.05387      316.23651     -2247.0455      6.9490522     -2240.0964     -12644.304    
     25150   154.44531      307.07361     -2246.8673      6.7477045     -2240.1196     -14510.7      
     25200   155.04047      308.25693     -2246.9153      6.7737071     -2240.1416     -12499.654    
     25250   139.57458      277.50711     -2246.2631      6.0980037     -2240.1651     -14411.875    
     25300   140.26826      278.88631     -2246.3181      6.1283105     -2240.1897     -11919.664    
     25350   140.69312      279.73103     -2246.3553      6.1468725     -2240.2084     -13949.944    
     25400   156.83339      311.82168     -2247.0871      6.8520396     -2240.235      -13460.792    
     25450   158.78652      315.70496     -2247.188       6.9373718     -2240.2506     -11931.666    
     25500   150.13143      298.49662     -2246.825       6.5592317     -2240.2658     -13179.346    
     25550   151.45318      301.12455     -2246.914       6.6169785     -2240.297      -11647.589    
     25600   146.62208      291.51919     -2246.7161      6.4059082     -2240.3102     -16577.663    
     25650   154.45523      307.09334     -2247.0798      6.748138      -2240.3316     -14797.158    
     25700   151.32435      300.86841     -2246.9606      6.6113501     -2240.3492     -13240.052    
     25750   157.85522      313.85331     -2247.273       6.8966832     -2240.3763     -13616.041    
     25800   150.18944      298.61195     -2246.9509      6.561766      -2240.3892     -15234.023    
     25850   152.53847      303.28236     -2247.0734      6.6643947     -2240.409      -11463.182    
     25900   143.77114      285.85085     -2246.7089      6.2813508     -2240.4276     -12540.637    
     25950   151.8078       301.82963     -2247.0807      6.6324721     -2240.4483     -13920.674    
     26000   139.96367      278.28071     -2246.5746      6.1150029     -2240.4596     -10685.466    
     26050   147.65894      293.58071     -2246.9343      6.4512085     -2240.4831     -15944.626    
     26100   149.31603      296.87539     -2247.0187      6.5236066     -2240.4951     -12951.413    
     26150   147.57503      293.41387     -2246.9607      6.4475424     -2240.5131     -15626.502    
     26200   149.40353      297.04936     -2247.0584      6.5274295     -2240.531      -12319.091    
     26250   142.14495      282.6176      -2246.7592      6.2103026     -2240.5489     -14549.141    
     26300   138.4521       275.27535     -2246.604       6.0489624     -2240.5551     -13067.323    
     26350   149.47338      297.18825     -2247.1055      6.5304814     -2240.5751     -13302.792    
     26400   146.46405      291.20499     -2246.9928      6.3990038     -2240.5937     -13794.885    
     26450   142.06691      282.46245     -2246.8137      6.2068934     -2240.6068     -14075.485    
     26500   137.08356      272.55438     -2246.6065      5.9891711     -2240.6173     -12796.666    
     26550   140.43075      279.20937     -2246.7616      6.1354094     -2240.6262     -12673.656    
     26600   139.67282      277.70243     -2246.7432      6.1022956     -2240.6409     -13628.407    
     26650   146.19274      290.66556     -2247.0374      6.3871503     -2240.6503     -11063.831    
     26700   150.64489      299.51748     -2247.246       6.5816644     -2240.6643     -15323.364    
     26750   147.63201      293.52717     -2247.1262      6.4500319     -2240.6761     -10005.378    
     26800   151.6866       301.58866     -2247.3162      6.6271769     -2240.689      -12769.953    
     26850   138.2457       274.86499     -2246.7353      6.039945      -2240.6954     -12868.7      
     26900   143.60811      285.52671     -2246.9846      6.274228      -2240.7103     -13279.937    
     26950   135.36038      269.12828     -2246.6274      5.9138853     -2240.7135     -14572.729    
     27000   143.07377      284.46432     -2246.9819      6.2508828     -2240.731      -13415.057    
     27050   142.10038      282.529       -2246.9508      6.2083556     -2240.7424     -12688.543    
     27100   146.47845      291.23363     -2247.152       6.3996332     -2240.7524     -11875.779    
     27150   150.13855      298.51077     -2247.3193      6.5595426     -2240.7598     -11471.288    
     27200   148.66816      295.58728     -2247.2607      6.4953013     -2240.7654     -13353.424    
     27250   141.77521      281.88248     -2246.9716      6.1941489     -2240.7775     -12438.747    
     27300   140.37104      279.09066     -2246.9082      6.1328008     -2240.7754     -12226.207    
     27350   140.47722      279.30177     -2246.9256      6.1374399     -2240.7881     -15042.96     
     27400   143.7846       285.87762     -2247.0835      6.281939      -2240.8015     -14035.408    
     27450   129.33804      257.15445     -2246.4491      5.6507696     -2240.7983     -12985.965    
     27500   132.44452      263.33086     -2246.5925      5.7864915     -2240.806      -13109.889    
     27550   148.34718      294.94911     -2247.2925      6.4812779     -2240.8112     -15708.036    
     27600   155.2927       308.75842     -2247.6033      6.784727      -2240.8185     -14875.692    
     27650   134.8546       268.12267     -2246.707       5.8917877     -2240.8152     -15654.516    
     27700   141.61954      281.57296     -2247.0064      6.1873476     -2240.8191     -13451.027    
     27750   137.05612      272.49982     -2246.8058      5.9879723     -2240.8179     -16300.054    
     27800   143.58886      285.48843     -2247.0991      6.273387      -2240.8257     -17590.627    
     27850   139.27977      276.92095     -2246.9095      6.0851231     -2240.8244     -12892.858    
     27900   139.0935       276.55061     -2246.9034      6.0769853     -2240.8264     -13220.728    
     27950   150.44987      299.12975     -2247.4012      6.5731443     -2240.828      -16415.904    
     28000   144.2443       286.79161     -2247.1331      6.3020232     -2240.8311     -12569.604    
     28050   126.55502      251.62115     -2246.3576      5.5291798     -2240.8284     -16511.947    
     28100   140.18538      278.72153     -2246.9506      6.1246894     -2240.8259     -14162.484    
     28150   139.99486      278.34272     -2246.9372      6.1163655     -2240.8208     -12762.959    
     28200   145.72469      289.73498     -2247.1902      6.3667015     -2240.8235     -11192.779    
     28250   139.40103      277.16206     -2246.9037      6.0904213     -2240.8132     -13773.741    
     28300   154.61988      307.4207      -2247.5764      6.7553316     -2240.821      -14241.161    
     28350   144.62506      287.54864     -2247.1325      6.3186585     -2240.8139     -13920.759    
     28400   143.70474      285.71884     -2247.0824      6.27845       -2240.804      -15548.519    
     28450   147.53983      293.34389     -2247.25        6.4460046     -2240.804      -13979.985    
     28500   139.92296      278.19976     -2246.911       6.113224      -2240.7978     -10980.682    
     28550   137.01793      272.42388     -2246.777       5.9863036     -2240.7907     -19440.405    
     28600   142.17347      282.67431     -2246.9921      6.2115487     -2240.7805     -12956.346    
     28650   141.39471      281.12595     -2246.9579      6.1775247     -2240.7803     -15221.71     
     28700   142.40871      283.14202     -2247.0014      6.2218262     -2240.7796     -13657.311    
     28750   133.4149       265.26021     -2246.5964      5.8288875     -2240.7675     -15700.475    
     28800   150.6984       299.62387     -2247.353       6.5840022     -2240.769      -14417.272    
     28850   143.12288      284.56196     -2247.0158      6.2530285     -2240.7628     -9870.7324    
     28900   120.97885      240.53442     -2246.0304      5.2855573     -2240.7448     -14301.07     
     28950   144.22932      286.76183     -2247.0387      6.301369      -2240.7374     -13427.828    
     29000   132.98963      264.41468     -2246.54        5.8103075     -2240.7297     -13108.814    
     29050   149.98655      298.20856     -2247.2719      6.5529018     -2240.719      -13651.864    
     29100   138.13018      274.63529     -2246.7402      6.0348977     -2240.7053     -14706.596    
     29150   145.90643      290.09632     -2247.0683      6.3746418     -2240.6937     -14855.022    
     29200   139.14167      276.64639     -2246.7582      6.0790899     -2240.6791     -15140.1      
     29250   139.11634      276.59601     -2246.7444      6.0779829     -2240.6664     -14542.029    
     29300   153.05569      304.31073     -2247.3418      6.6869923     -2240.6548     -13926.807    
     29350   140.5065       279.35998     -2246.7772      6.138719      -2240.6385     -12408.506    
     29400   143.48332      285.27861     -2246.8944      6.2687762     -2240.6256     -13056.371    
     29450   151.43341      301.08525     -2247.2316      6.6161149     -2240.6155     -12818.284    
     29500   138.73748      275.84275     -2246.6641      6.0614306     -2240.6027     -15301.204    
     29550   140.14215      278.63556     -2246.7053      6.1228004     -2240.5825     -13368.92     
     29600   140.54653      279.43957     -2246.7056      6.1404679     -2240.5651     -13172.839    
     29650   150.42259      299.0755      -2247.1231      6.5719522     -2240.5512     -13781.126    
     29700   148.21635      294.68899     -2247.011       6.475562      -2240.5355     -16370.764    
     29750   140.41088      279.16986     -2246.6548      6.1345413     -2240.5203     -11478.008    
     29800   139.88328      278.12087     -2246.6104      6.1114905     -2240.499      -14267.875    
     29850   130.57589      259.6156      -2246.18        5.7048515     -2240.4751     -12248.523    
     29900   144.87108      288.0378      -2246.7889      6.3294073     -2240.4595     -13501.193    
     29950   156.07508      310.31399     -2247.2544      6.8189093     -2240.4355     -11973.435    
     30000   137.03589      272.4596      -2246.4013      5.9870884     -2240.4142     -16541.229    
     30050   146.26128      290.80184     -2246.7922      6.390145      -2240.4021     -13209.113    
     30100   145.92501      290.13326     -2246.7458      6.3754535     -2240.3703     -13581.184    
     30150   158.67687      315.48695     -2247.2815      6.9325812     -2240.3489     -15736.113    
     30200   139.79687      277.94907     -2246.4284      6.1077153     -2240.3207     -9519.3033    
     30250   151.69779      301.61091     -2246.9323      6.6276658     -2240.3047     -12926.677    
     30300   145.53031      289.3485      -2246.6366      6.3582088     -2240.2784     -16226.03     
     30350   146.1382       290.55712     -2246.6432      6.3847675     -2240.2584     -10423.594    
     30400   154.33456      306.85341     -2246.9798      6.7428658     -2240.2369     -14790.515    
     30450   159.56075      317.24431     -2247.1834      6.9711977     -2240.2122     -11581.97     
     30500   156.78197      311.71944     -2247.0347      6.849793      -2240.1849     -12954.553    
     30550   144.22819      286.75958     -2246.4538      6.3013193     -2240.1525     -15076.748    
     30600   168.01805      334.05941     -2247.4751      7.3406965     -2240.1344     -12586.441    
     30650   154.88631      307.95043     -2246.8745      6.766972      -2240.1075     -14131.589    
     30700   155.34977      308.87191     -2246.8667      6.7872206     -2240.0795     -14089.199    
     30750   145.67149      289.62921     -2246.4201      6.3643772     -2240.0557     -13427.611    
     30800   144.8239       287.94398     -2246.3549      6.3273457     -2240.0276     -16564.632    
     30850   140.38462      279.11766     -2246.1435      6.1333942     -2240.0101     -14589.935    
     30900   141.5322       281.39931     -2246.1698      6.1835316     -2239.9863     -12901.407    
     30950   146.53568      291.34741     -2246.3641      6.4021335     -2239.962      -16404.415    
     31000   146.85895      291.99015     -2246.35        6.4162572     -2239.9338     -14900.989    
     31050   147.63043      293.52402     -2246.3524      6.4499628     -2239.9024     -13276.724    
     31100   153.29438      304.78529     -2246.5811      6.6974205     -2239.8836     -9226.9934    
     31150   147.86802      293.99641     -2246.3162      6.4603432     -2239.8558     -12687.226    
     31200   149.05363      296.35369     -2246.3475      6.5121426     -2239.8353     -15760.382    
     31250   149.92173      298.07967     -2246.3586      6.5500695     -2239.8085     -13241.862    
     31300   158.70248      315.53787     -2246.7231      6.9337001     -2239.7894     -14429.255    
     31350   154.36691      306.91773     -2246.5128      6.7442792     -2239.7685     -12008.659    
     31400   146.64449      291.56376     -2246.1487      6.4068875     -2239.7418     -15540.992    
     31450   155.7983       309.76369     -2246.5287      6.8068168     -2239.7219     -14411.485    
     31500   154.93274      308.04275     -2246.4754      6.7690006     -2239.7064     -15286.262    
     31550   155.27989      308.73296     -2246.4696      6.7841674     -2239.6854     -14586.271    
     31600   155.31734      308.80743     -2246.4472      6.7858038     -2239.6614     -14035.209    
     31650   162.98549      324.05351     -2246.7628      7.1208245     -2239.642      -13831.726    
     31700   149.1662       296.5775      -2246.1402      6.5170605     -2239.6231     -12523.643    
     31750   158.45058      315.03703     -2246.5184      6.9226944     -2239.5957     -16362.81     
     31800   155.8848       309.93566     -2246.3912      6.8105958     -2239.5806     -12565.184    
     31850   155.68326      309.53495     -2246.3663      6.8017905     -2239.5645     -12128.162    
     31900   164.12664      326.32237     -2246.7176      7.1706812     -2239.547      -16609.624    
     31950   160.5504       319.21197     -2246.5462      7.0144355     -2239.5318     -13450.733    
     32000   158.49086      315.11712     -2246.443       6.9244544     -2239.5186     -14499.169    
     32050   158.97391      316.07754     -2246.4451      6.9455588     -2239.4995     -13371.761    
     32100   162.40776      322.90484     -2246.5819      7.0955835     -2239.4863     -14487.452    
     32150   161.08695      320.27875     -2246.5122      7.0378773     -2239.4744     -13556.73     
     32200   161.37434      320.85015     -2246.5129      7.0504333     -2239.4625     -10910.512    
     32250   154.02066      306.22932     -2246.1755      6.7291518     -2239.4463     -13915.057    
     32300   176.10303      350.13426     -2247.1413      7.6939289     -2239.4474     -13080.393    
     32350   176.77873      351.47771     -2247.1588      7.7234501     -2239.4354     -14399.487    
     32400   159.55167      317.22627     -2246.4005      6.9708012     -2239.4297     -12206.276    
     32450   158.46427      315.06425     -2246.3516      6.9232927     -2239.4283     -12354.061    
     32500   162.70569      323.49719     -2246.5345      7.1086        -2239.4259     -15221.301    
     32550   155.75479      309.67718     -2246.2183      6.8049159     -2239.4134     -15031.848    
     32600   147.37161      293.00943     -2245.8443      6.4386551     -2239.4057     -12599.658    
     32650   150.48272      299.19506     -2245.9811      6.5745794     -2239.4065     -13123.375    
     32700   152.82551      303.85308     -2246.0744      6.6769358     -2239.3974     -13422.224    
     32750   155.44918      309.06955     -2246.1853      6.7915637     -2239.3937     -12582.717    
     32800   155.82325      309.81329     -2246.1962      6.8079067     -2239.3883     -13627.575    
     32850   157.98097      314.10334     -2246.2851      6.9021773     -2239.3829     -13830.698    
     32900   186.03561      369.88257     -2247.5216      8.1278826     -2239.3937     -15853.74     
     32950   160.95539      320.01719     -2246.4223      7.0321295     -2239.3902     -13101.756    
     33000   164.73142      327.52482     -2246.5918      7.197104      -2239.3947     -13213.309    
     33050   164.28751      326.64222     -2246.5671      7.1777094     -2239.3894     -11605.428    
     33100   164.59706      327.25768     -2246.5919      7.1912338     -2239.4006     -13495.613    
     33150   159.7025       317.52615     -2246.3758      6.977391      -2239.3984     -11136.781    
     33200   159.76545      317.65131     -2246.3879      6.9801412     -2239.4077     -13033.649    
     33250   164.1416       326.35211     -2246.5828      7.1713347     -2239.4115     -10728.09     
     33300   164.50965      327.0839      -2246.6022      7.1874151     -2239.4148     -14072.189    
     33350   172.94628      343.85791     -2246.9718      7.5560109     -2239.4158     -11247.686    
     33400   177.05318      352.02339     -2247.1646      7.735441      -2239.4291     -13401.117    
     33450   166.92006      331.87636     -2246.7235      7.2927256     -2239.4308     -13268.681    
     33500   170.86149      339.71284     -2246.9069      7.4649262     -2239.4419     -13744.133    
     33550   151.34854      300.9165      -2246.0507      6.6124068     -2239.4383     -11850.877    
     33600   157.88441      313.91136     -2246.3527      6.8979588     -2239.4547     -12560.284    
     33650   159.76827      317.65691     -2246.4499      6.9802643     -2239.4697     -15179        
     33700   153.29135      304.77928     -2246.1721      6.6972884     -2239.4748     -15389.884    
     33750   153.04641      304.29228     -2246.168       6.6865869     -2239.4814     -14221.021    
     33800   158.41656      314.9694      -2246.4127      6.9212084     -2239.4915     -16298.048    
     33850   153.4166       305.0283      -2246.1959      6.7027604     -2239.4931     -13338.874    
     33900   163.90073      325.87322     -2246.6606      7.1608114     -2239.4998     -15805.255    
     33950   150.14717      298.52791     -2246.0703      6.5599194     -2239.5104     -15035.436    
     34000   163.92348      325.91844     -2246.6841      7.1618051     -2239.5223     -12613.734    
     34050   163.02266      324.12741     -2246.6528      7.1224486     -2239.5304     -13469.584    
     34100   139.93029      278.21434     -2245.6422      6.1135445     -2239.5287     -12816.315    
     34150   153.84314      305.87636     -2246.2661      6.7213958     -2239.5447     -14093.769    
     34200   152.8625       303.92663     -2246.2338      6.6785519     -2239.5552     -14534.919    
     34250   152.9926       304.18528     -2246.2496      6.6842357     -2239.5654     -12829.764    
     34300   148.9458       296.13929     -2246.0802      6.5074314     -2239.5728     -12480.124    
     34350   168.37888      334.77683     -2246.9397      7.3564614     -2239.5833     -13847.489    
     34400   156.59868      311.35502     -2246.437       6.8417852     -2239.5952     -16078.677    
     34450   142.3781       283.08116     -2245.8195      6.2204889     -2239.599      -15465.719    
     34500   140.14143      278.63415     -2245.7348      6.1227693     -2239.612      -11595.775    
     34550   152.35039      302.90841     -2246.2841      6.6561775     -2239.6279     -15326.562    
     34600   153.98659      306.16157     -2246.3655      6.7276631     -2239.6379     -12204.967    
     34650   166.35463      330.75214     -2246.9183      7.2680218     -2239.6503     -14284.305    
[...]
    191150   158.44442      315.02479     -2265.9793      6.9224255     -2259.0569     -26212.573    
    191200   157.02533      312.2033      -2265.9009      6.8604255     -2259.0405     -26803.142    
    191250   151.77424      301.7629      -2265.6674      6.6310057     -2259.0363     -23486.559    
    191300   146.1219       290.52472     -2265.4107      6.3840554     -2259.0266     -23105.788    
    191350   148.73501      295.72019     -2265.5231      6.4982219     -2259.0249     -20956.858    
    191400   147.34635      292.9592      -2265.4462      6.4375514     -2259.0086     -25386.419    
    191450   162.0886       322.27027     -2266.0903      7.0816393     -2259.0087     -25291.404    
    191500   154.38649      306.95668     -2265.741       6.745135      -2258.9959     -21664.317    
    191550   164.88874      327.83762     -2266.2022      7.2039775     -2258.9982     -23893.879    
    191600   148.85285      295.95449     -2265.4898      6.5033704     -2258.9864     -25050.642    
    191650   157.87665      313.89594     -2265.8819      6.8976198     -2258.9843     -24562.646    
    191700   159.29124      316.70846     -2265.937       6.9594229     -2258.9776     -25511.487    
    191750   155.10843      308.39206     -2265.747       6.7766765     -2258.9703     -26596.553    
    191800   167.18748      332.40806     -2266.2761      7.3044093     -2258.9717     -25562.618    
    191850   152.82356      303.84919     -2265.6389      6.6768503     -2258.9621     -26296.62     
    191900   158.55581      315.24625     -2265.8837      6.9272919     -2258.9564     -25570.864    
    191950   156.79351      311.7424      -2265.8025      6.8502975     -2258.9522     -24554.793    
    192000   153.00767      304.21525     -2265.63        6.6848942     -2258.9451     -23822.498    
    192050   157.30948      312.76826     -2265.8088      6.87284       -2258.936      -22319.157    
    192100   131.175        260.80677     -2264.6638      5.7310265     -2258.9327     -31203.104    
    192150   166.65759      331.3545      -2266.222       7.2812583     -2258.9407     -24664.786    
    192200   163.99241      326.0555      -2266.1041      7.1648168     -2258.9393     -24215.174    
    192250   137.90985      274.19723     -2264.9499      6.0252716     -2258.9246     -26794.57     
    192300   146.90719      292.08606     -2265.3497      6.4183646     -2258.9314     -24961.841    
    192350   165.66418      329.37936     -2266.1642      7.2378561     -2258.9263     -24056.218    
    192400   151.46946      301.15692     -2265.5303      6.6176899     -2258.9126     -23018.712    
    192450   169.07196      336.15483     -2266.302       7.3867417     -2258.9152     -25009.001    
    192500   150.75148      299.72941     -2265.4983      6.5863213     -2258.912      -26827.693    
    192550   154.86611      307.91026     -2265.6737      6.7660892     -2258.9076     -25647.056    
    192600   155.18523      308.54475     -2265.6834      6.7800316     -2258.9034     -25207.273    
    192650   163.70774      325.48951     -2266.0639      7.1523797     -2258.9116     -21816.974    
    192700   149.56189      297.36423     -2265.4511      6.5343484     -2258.9167     -22517.897    
    192750   156.20746      310.57718     -2265.7298      6.8246926     -2258.9051     -24592.571    
    192800   154.74633      307.67211     -2265.6618      6.760856      -2258.901      -24947.192    
    192850   154.19125      306.56848     -2265.6419      6.7366047     -2258.9053     -24290.264    
    192900   154.80591      307.79057     -2265.6643      6.7634591     -2258.9009     -26575.21     
    192950   152.53124      303.268       -2265.5667      6.6640792     -2258.9026     -23163.102    
    193000   168.25823      334.53694     -2266.2558      7.35119       -2258.9046     -26352.017    
    193050   165.92356      329.89508     -2266.169       7.2491887     -2258.9198     -26790.174    
    193100   152.23576      302.68051     -2265.5748      6.6511695     -2258.9236     -25033.769    
    193150   153.81957      305.82951     -2265.6429      6.7203663     -2258.9225     -28764.273    
    193200   158.79896      315.7297      -2265.8657      6.9379154     -2258.9278     -27461.448    
    193250   165.73263      329.51546     -2266.1824      7.2408466     -2258.9416     -24049.841    
    193300   151.61307      301.44246     -2265.5604      6.6239643     -2258.9365     -24308.446    
    193350   161.59548      321.28985     -2266.0056      7.0600953     -2258.9455     -25144.617    
    193400   154.62557      307.43201     -2265.7008      6.75558       -2258.9453     -27388.233    
    193450   153.71621      305.624       -2265.6708      6.7158505     -2258.9549     -27969.934    
    193500   151.73765      301.69015     -2265.5901      6.6294072     -2258.9607     -22503.686    
    193550   147.71889      293.69992     -2265.4119      6.453828      -2258.958      -25434.888    
    193600   143.93497      286.17659     -2265.2465      6.2885088     -2258.958      -25468.142    
    193650   155.09684      308.36902     -2265.7464      6.7761701     -2258.9702     -24871.215    
    193700   153.62379      305.44024     -2265.6984      6.7118125     -2258.9866     -25575.328    
    193750   162.50448      323.09714     -2266.0972      7.0998091     -2258.9974     -26699.677    
    193800   159.10071      316.32964     -2265.9612      6.9510986     -2259.0101     -24558.02     
    193850   161.26953      320.64178     -2266.073       7.0458545     -2259.0272     -24558.589    
    193900   155.47752      309.12588     -2265.8292      6.7928016     -2259.0364     -22917.708    
    193950   149.05921      296.36478     -2265.5631      6.5123862     -2259.0507     -21743.759    
    194000   153.97634      306.14119     -2265.7972      6.7272152     -2259.07       -24861.031    
    194050   154.99224      308.16105     -2265.8537      6.7716001     -2259.0821     -26850.462    
    194100   153.33046      304.85703     -2265.8017      6.6989968     -2259.1027     -23148.811    
    194150   167.67961      333.38652     -2266.4414      7.3259103     -2259.1155     -25625.035    
    194200   150.26199      298.75619     -2265.6958      6.5649356     -2259.1308     -27772.345    
    194250   168.96215      335.93652     -2266.5316      7.3819445     -2259.1497     -30660.852    
    194300   151.16966      300.56085     -2265.7763      6.6045917     -2259.1717     -29755.333    
    194350   160.38612      318.88534     -2266.1923      7.007258      -2259.1851     -29640.338    
    194400   148.90957      296.06726     -2265.7109      6.5058484     -2259.2051     -25591.326    
    194450   158.24396      314.62622     -2266.1315      6.9136673     -2259.2178     -27992.589    
    194500   142.36166      283.04849     -2265.4583      6.219771      -2259.2385     -27280.434    
    194550   158.58969      315.31362     -2266.1851      6.9287723     -2259.2564     -26907.249    
    194600   159.8087       317.7373      -2266.2651      6.9820308     -2259.283      -22552.127    
    194650   161.66491      321.42787     -2266.3692      7.0631282     -2259.306      -22366.037    
    194700   150.9805       300.18476     -2265.9149      6.5963273     -2259.3186     -26467.785    
    194750   139.63448      277.6262      -2265.4443      6.1006205     -2259.3437     -27582.239    
    194800   149.79536      297.82842     -2265.9093      6.5445487     -2259.3648     -26307.335    
    194850   157.27026      312.69029     -2266.2619      6.8711267     -2259.3908     -23749.119    
    194900   155.25779      308.68902     -2266.196       6.783202      -2259.4128     -22141.207    
    194950   136.07644      270.55199     -2265.3774      5.9451701     -2259.4322     -26574.904    
    195000   149.98781      298.21105     -2266.0113      6.5529566     -2259.4584     -23580.722    
    195050   148.3156       294.88632     -2265.9594      6.4798982     -2259.4795     -25679.825    
    195100   147.98964      294.23822     -2265.9752      6.4656568     -2259.5095     -23834.899    
    195150   146.56536      291.40642     -2265.935       6.4034302     -2259.5315     -26434.413    
    195200   141.03041      280.40163     -2265.7158      6.1616085     -2259.5542     -28667.656    
    195250   143.5507       285.41257     -2265.8509      6.27172       -2259.5792     -32500.366    
    195300   142.18322      282.6937      -2265.8188      6.211975      -2259.6068     -28674.834    
    195350   151.52496      301.26728     -2266.2542      6.6201148     -2259.6341     -22312.79     
    195400   140.68318      279.71126     -2265.7971      6.146438      -2259.6506     -21783.228    
    195450   149.4145       297.07117     -2266.1989      6.5279087     -2259.671      -26956.33     
    195500   144.93169      288.15831     -2266.0223      6.3320554     -2259.6903     -25129.188    
    195550   144.42124      287.14341     -2266.0203      6.3097538     -2259.7106     -27914.073    
    195600   151.75429      301.72324     -2266.3632      6.6301343     -2259.733      -29076.303    
    195650   142.40801      283.14062     -2265.9767      6.2217957     -2259.7549     -26858.099    
    195700   140.63819      279.62181     -2265.9215      6.1444724     -2259.777      -24960.08     
    195750   152.48085      303.16781     -2266.4562      6.6618776     -2259.7943     -27209.186    
    195800   153.18821      304.57421     -2266.5108      6.6927822     -2259.818      -27654.762    
    195850   149.18074      296.60641     -2266.3526      6.5176958     -2259.8349     -26300.315    
    195900   153.88697      305.9635      -2266.5889      6.7233106     -2259.8655     -26880.332    
    195950   136.78674      271.96422     -2265.8542      5.9762029     -2259.878      -25685.402    
    196000   141.9906       282.31071     -2266.0984      6.203559      -2259.8949     -24422.831    
    196050   138.23355      274.84083     -2265.9442      6.0394141     -2259.9048     -26355.892    
    196100   143.96273      286.23179     -2266.2228      6.2897217     -2259.9331     -24420.54     
    196150   151.3838       300.98662     -2266.5685      6.6139475     -2259.9545     -27804.006    
    196200   148.31398      294.88309     -2266.4446      6.4798273     -2259.9648     -25311.12     
    196250   140.46296      279.27342     -2266.1099      6.1368169     -2259.9731     -26357.418    
    196300   142.56239      283.44758     -2266.2124      6.2285408     -2259.9839     -26854.316    
    196350   148.20493      294.66627     -2266.4784      6.4750629     -2260.0033     -26338.277    
    196400   153.25097      304.69898     -2266.7202      6.6955238     -2260.0246     -25823.24     
    196450   139.28525      276.93184     -2266.1192      6.0853625     -2260.0339     -26491.15     
    196500   143.95733      286.22103     -2266.3332      6.2894853     -2260.0437     -27067.599    
    196550   148.64121      295.5337      -2266.5541      6.494124      -2260.06       -27912.681    
    196600   132.49884      263.43886     -2265.864       5.7888647     -2260.0752     -25481.575    
    196650   141.80368      281.93909     -2266.2818      6.1953929     -2260.0864     -25170.526    
    196700   129.63278      257.74046     -2265.7609      5.6636467     -2260.0973     -25779.594    
    196750   132.6992       263.83723     -2265.906       5.7976185     -2260.1083     -24044.997    
    196800   138.72523      275.8184      -2266.1745      6.0608954     -2260.1137     -27700.293    
    196850   140.72852      279.80141     -2266.2701      6.1484191     -2260.1216     -21908.144    
    196900   130.41976      259.30517     -2265.8177      5.6980301     -2260.1197     -23133.799    
    196950   146.79204      291.85712     -2266.5409      6.4133339     -2260.1276     -19849.57     
    197000   140.06674      278.48563     -2266.2569      6.1195059     -2260.1374     -23838.209    
    197050   156.8559       311.86643     -2266.9993      6.8530231     -2260.1463     -24456.172    
    197100   149.62044      297.48063     -2266.6947      6.5369063     -2260.1578     -22841.89     
    197150   146.08342      290.4482      -2266.5537      6.382374      -2260.1713     -25641.505    
    197200   143.70861      285.72652     -2266.4499      6.2786188     -2260.1713     -23081.454    
    197250   140.87934      280.10127     -2266.3335      6.1550082     -2260.1785     -28171.087    
    197300   145.34407      288.97821     -2266.5387      6.3500722     -2260.1886     -26007.615    
    197350   129.02616      256.53436     -2265.8225      5.6371437     -2260.1854     -25124.186    
    197400   144.21968      286.74266     -2266.4945      6.3009477     -2260.1935     -21459.956    
    197450   137.45624      273.29535     -2266.1964      6.0054535     -2260.191      -26503.13     
    197500   149.25906      296.76213     -2266.7287      6.5211176     -2260.2076     -28201.081    
    197550   137.72589      273.83147     -2266.2253      6.0172343     -2260.2081     -24180.398    
    197600   133.54087      265.51067     -2266.047       5.8343912     -2260.2126     -24451.836    
    197650   140.6577       279.6606      -2266.3634      6.1453249     -2260.2181     -30584.643    
    197700   140.11463      278.58085     -2266.3392      6.1215981     -2260.2176     -25683.305    
    197750   130.32372      259.11422     -2265.9062      5.6938341     -2260.2124     -24822.165    
    197800   138.4265       275.22445     -2266.2661      6.0478439     -2260.2183     -22745.397    
    197850   158.36287      314.86265     -2267.1437      6.9188627     -2260.2248     -23323.423    
    197900   140.64689      279.6391      -2266.3628      6.1448525     -2260.2179     -27914.292    
    197950   142.89025      284.09943     -2266.4626      6.2428648     -2260.2198     -23888.433    
    198000   150.94359      300.11137     -2266.8168      6.5947147     -2260.2221     -23505.084    
    198050   149.38476      297.01205     -2266.7507      6.5266095     -2260.2241     -22607.283    
    198100   141.20037      280.73955     -2266.3848      6.169034      -2260.2158     -24749.497    
    198150   138.66021      275.68912     -2266.2754      6.0580546     -2260.2174     -29410.681    
    198200   134.34719      267.11383     -2266.0931      5.8696193     -2260.2235     -24049.812    
    198250   140.80013      279.94378     -2266.3766      6.1515476     -2260.2251     -21445.695    
    198300   148.75468      295.75931     -2266.7212      6.4990815     -2260.2221     -26752.289    
    198350   147.42034      293.10633     -2266.6639      6.4407844     -2260.2231     -25125.094    
    198400   139.95385      278.26118     -2266.3329      6.1145736     -2260.2183     -23823.638    
    198450   148.53463      295.32179     -2266.715       6.4894674     -2260.2255     -23687.8      
    198500   139.83568      278.02624     -2266.3262      6.1094111     -2260.2168     -28096.533    
    198550   142.51989      283.36308     -2266.4416      6.226684      -2260.2149     -21818.153    
    198600   145.17442      288.64091     -2266.55        6.3426601     -2260.2073     -24603.2      
    198650   145.78859      289.86202     -2266.5666      6.3694932     -2260.1972     -27074.623    
    198700   141.42073      281.1777      -2266.3637      6.1786619     -2260.185      -28160.88     
    198750   150.45128      299.13254     -2266.7526      6.5732055     -2260.1794     -25542.333    
    198800   139.23276      276.82749     -2266.2614      6.0830694     -2260.1783     -27324.585    
    198850   153.67235      305.53679     -2266.8872      6.713934      -2260.1733     -26117.043    
    198900   139.11618      276.59571     -2266.2425      6.0779762     -2260.1645     -25004.86     
    198950   149.27328      296.7904      -2266.6764      6.5217389     -2260.1547     -23867.777    
    199000   144.21685      286.73703     -2266.4447      6.300824      -2260.1439     -26134.346    
    199050   154.29802      306.78078     -2266.8758      6.7412697     -2260.1346     -21678.517    
    199100   132.09057      262.62714     -2265.8923      5.7710278     -2260.1213     -20667.922    
    199150   152.3557       302.91898     -2266.7657      6.6564097     -2260.1092     -25803.994    
    199200   138.70738      275.78291     -2266.1595      6.0601157     -2260.0994     -27065.808    
    199250   148.51926      295.29124     -2266.5866      6.488796      -2260.0978     -24559.699    
    199300   146.79532      291.86363     -2266.4948      6.4134769     -2260.0813     -26224.32     
    199350   149.14273      296.53085     -2266.5902      6.5160355     -2260.0742     -26119.529    
    199400   139.28779      276.93689     -2266.1424      6.0854734     -2260.0569     -28748.761    
    199450   147.6996       293.66156     -2266.504       6.452985      -2260.051      -26840.215    
    199500   157.32569      312.80048     -2266.9207      6.8735481     -2260.0471     -24529.77     
    199550   152.23562      302.68023     -2266.6747      6.6511634     -2260.0235     -25229.299    
    199600   147.30417      292.87535     -2266.4435      6.4357088     -2260.0078     -28241.428    
    199650   138.99437      276.35351     -2266.0656      6.0726541     -2259.993      -21739.679    
    199700   142.58234      283.48724     -2266.2001      6.2294123     -2259.9707     -21938.326    
    199750   162.2048       322.50132     -2267.0518      7.0867164     -2259.9651     -23470.408    
    199800   149.97507      298.18573     -2266.4875      6.5524003     -2259.9351     -27473.977    
    199850   134.5144       267.44628     -2265.7908      5.8769246     -2259.9139     -25221.323    
    199900   147.98058      294.22021     -2266.3611      6.465261      -2259.8959     -27214.579    
    199950   160.05548      318.22795     -2266.8812      6.9928124     -2259.8884     -25615.376    
    200000   148.30511      294.86546     -2266.344       6.4794399     -2259.8645     -23269.618    
colvars: Saving collective variables state to "out.colvars.state".
colvars:   Writing TI PMF to file "out.metadynamics1.ti.pmf".
Loop time of 990.493 on 4 procs for 200000 steps with 339 atoms

Performance: 8.723 ns/day, 2.751 hours/ns, 201.920 timesteps/s, 68.451 katom-step/s
138.2% CPU use with 4 MPI tasks x 1 OpenMP threads

MPI task timing breakdown:
Section |  min time  |  avg time  |  max time  |%varavg| %total
---------------------------------------------------------------
Pair    | 707.73     | 836.98     | 942.71     | 362.5 | 84.50
Neigh   | 0.1024     | 1.096      | 2.0566     |  67.2 |  0.11
Comm    | 25.742     | 113.57     | 210.48     | 807.4 | 11.47
Output  | 5.1201     | 5.9877     | 6.9709     |  34.7 |  0.60
Modify  | 11.712     | 30.256     | 63.688     | 386.2 |  3.05
Other   |            | 2.603      |            |       |  0.26

Nlocal:          84.75 ave         143 max           1 min
Histogram: 1 0 0 0 0 0 2 0 0 1
Nghost:        1156.75 ave        1673 max         558 min
Histogram: 1 0 0 0 0 1 1 0 0 1
Neighs:              0 ave           0 max           0 min
Histogram: 4 0 0 0 0 0 0 0 0 0
FullNghs:        16573 ave       33667 max          29 min
Histogram: 1 0 0 0 1 1 0 0 0 1

Total # of neighbors = 66292
Ave neighs/atom = 195.55162
Neighbor list builds = 1884
Dangerous builds = 0
System init for write_data ...
Generated 0 of 6 mixed pair_coeff terms from geometric mixing rule

CITE-CITE-CITE-CITE-CITE-CITE-CITE-CITE-CITE-CITE-CITE-CITE-CITE

Your simulation uses code contributions which should be cited:
- Colvars module (Fiorin2013, plus other works listed for specific features)
The log file lists these citations in BibTeX format.

CITE-CITE-CITE-CITE-CITE-CITE-CITE-CITE-CITE-CITE-CITE-CITE-CITE

Total wall time: 0:16:55
