LAMMPS (2 Aug 2023)
OMP_NUM_THREADS environment is not set. Defaulting to 1 thread. (src/comm.cpp:98)
  using 1 OpenMP thread(s) per MPI task
Loaded 1 plugins from /work/home/baoergen22b/apprepo/deepmd/v2.2.9-dtk23.10/app/lib/deepmd_lmp
Reading data file ...
  orthogonal box = (0 0 0) to (11.328 12.015 32)
  1 by 1 by 4 MPI processor grid
  reading atoms ...
  338 atoms
  read_data CPU = 0.042 seconds
Summary of lammps deepmd module ...
  >>> Info of deepmd-kit:
  installed to:       /work/home/wys974137909/shangcheng/deepmd-kit/20240715/deepmd-kit_v2.2.9/install
  source:             v2.2.9
  source branch:      HEAD
  source commit:      be43748
  source commit at:   2024-02-04 13:44:12 +0800
  support model ver.: 1.1 
  build variant:      rocm
  build with tf inc:  /work/home/wys974137909/shangcheng/miniconda3/envs/deepmd-kit-v2.2.9/lib/python3.8/site-packages/tensorflow/include;/work/home/wys974137909/shangcheng/miniconda3/envs/deepmd-kit-v2.2.9/lib/python3.8/site-packages/tensorflow/include
  build with tf lib:  /work/home/wys974137909/shangcheng/miniconda3/envs/deepmd-kit-v2.2.9/lib/python3.8/site-packages/tensorflow/lib/libtensorflow_cc.so
  set tf intra_op_parallelism_threads: 0
  set tf inter_op_parallelism_threads: 0
  >>> Info of lammps module:
  use deepmd-kit at:  /work/home/wys974137909/shangcheng/deepmd-kit/20240715/deepmd-kit_v2.2.9/install
  source:             v2.2.9
  source branch:      HEAD
  source commit:      be43748
  source commit at:   2024-02-04 13:44:12 +0800
  build float prec:   double
  build with tf inc:  /work/home/wys974137909/shangcheng/miniconda3/envs/deepmd-kit-v2.2.9/lib/python3.8/site-packages/tensorflow/include;/work/home/wys974137909/shangcheng/miniconda3/envs/deepmd-kit-v2.2.9/lib/python3.8/site-packages/tensorflow/include
  build with tf lib:  /work/home/wys974137909/shangcheng/miniconda3/envs/deepmd-kit-v2.2.9/lib/python3.8/site-packages/tensorflow/lib/libtensorflow_cc.so
INVALID_ARGUMENT: Tensor spin_attr/ntypes_spin:0, specified in either feed_devices or fetch_devices was not found in the Graph
INVALID_ARGUMENT: Tensor spin_attr/ntypes_spin:0, specified in either feed_devices or fetch_devices was not found in the Graph
INVALID_ARGUMENT: Tensor spin_attr/ntypes_spin:0, specified in either feed_devices or fetch_devices was not found in the Graph
INVALID_ARGUMENT: Tensor spin_attr/ntypes_spin:0, specified in either feed_devices or fetch_devices was not found in the Graph
  >>> Info of model(s):
  using   1 model(s): graph-compress.pb 
  rcut in model:      6
  ntypes in model:    4
168 atoms in group fixed
170 atoms in group mobile

CITE-CITE-CITE-CITE-CITE-CITE-CITE-CITE-CITE-CITE-CITE-CITE-CITE

Your simulation uses code contributions which should be cited:
- GPU package (short-range, long-range and three-body potentials): doi:10.1016/j.cpc.2010.12.021, doi:10.1016/j.cpc.2011.10.012, doi:10.1016/j.cpc.2013.08.002, doi:10.1016/j.commatsci.2014.10.068, doi:10.1016/j.cpc.2016.10.020, doi:10.3233/APC200086
- USER-DEEPMD package:
The log file lists these citations in BibTeX format.

CITE-CITE-CITE-CITE-CITE-CITE-CITE-CITE-CITE-CITE-CITE-CITE-CITE

Generated 0 of 6 mixed pair_coeff terms from geometric mixing rule
Neighbor list info ...
  update: every = 1 steps, delay = 0 steps, check = yes
  max neighbors/atom: 2000, page size: 100000
  master list distance cutoff = 8
  ghost atom cutoff = 8
  binsize = 4, bins = 3 4 8
  1 neighbor lists, perpetual/occasional/extra = 1 0 0
  (1) pair deepmd, perpetual
      attributes: full, newton on
      pair build: full/bin/atomonly
      stencil: full/bin/3d
      bin: standard
Setting up Verlet run ...
  Unit style    : metal
  Current step  : 0
  Time step     : 0.0005
colvars: Creating proxy instance
colvars: ----------------------------------------------------------------------
colvars: Initializing the collective variables module, version 2023-05-01.
colvars: Please cite Fiorin et al, Mol Phys 2013:
colvars:   https://doi.org/10.1080/00268976.2013.813594
colvars: as well as all other papers listed below for individual features used.
colvars: This version was built with the C++11 standard or higher.
colvars: Using LAMMPS interface, version "2023-04-12".
colvars: ----------------------------------------------------------------------
colvars: Reading new configuration from file "pmf.in":
colvars: # units = "" [default]
colvars: # smp = on [default]
colvars: # colvarsTrajFrequency = 100 [default]
colvars: # colvarsRestartFrequency = 0 [default]
colvars: # scriptedColvarForces = off [default]
colvars: # scriptingAfterBiases = off [default]
colvars: ----------------------------------------------------------------------
colvars:   Initializing a new collective variable.
colvars:   # name = "d"
colvars:   Initializing a new "distanceZ" component.
colvars:     # name = "" [default]
colvars:     # componentCoeff = 1 [default]
colvars:     # componentExp = 1 [default]
colvars:     # period = 0 [default]
colvars:     # wrapAround = 0 [default]
colvars:     # forceNoPBC = off [default]
colvars:     # scalable = on [default]
colvars:       Initializing atom group "main".
colvars:       # name = "" [default]
colvars:       # centerToOrigin = off [default]
colvars:       # centerToReference = off [default]
colvars:       # rotateToReference = off [default]
colvars:       # atomsOfGroup = "" [default]
colvars:       # indexGroup = "" [default]
colvars:       # psfSegID =  [default]
colvars:       # atomsFile = "" [default]
colvars:       # dummyAtom = ( 0 , 0 , 0 ) [default]
colvars:       # enableFitGradients = on [default]
colvars:       # printAtomIDs = off [default]
colvars:       Atom group "main" defined with 1 atoms requested.
colvars:       Initializing atom group "ref".
colvars:       # name = "" [default]
colvars:       # centerToOrigin = off [default]
colvars:       # centerToReference = off [default]
colvars:       # rotateToReference = off [default]
colvars:       # atomsOfGroup = "" [default]
colvars:       # indexGroup = "" [default]
colvars:       # psfSegID =  [default]
colvars:       # atomsFile = "" [default]
colvars:       # dummyAtom = ( 0 , 0 , 0 ) [default]
colvars:       # enableFitGradients = on [default]
colvars:       # printAtomIDs = off [default]
colvars:       Atom group "ref" defined with 23 atoms requested.
colvars:     # axis = ( 0 , 0 , 1 ) [default]
colvars:     # oneSiteSystemForce = off [default]
colvars:     # oneSiteTotalForce = off [default]
colvars:   All components initialized.
colvars:   # timeStepFactor = 1 [default]
colvars:   # width = 0.05
colvars:   # lowerBoundary = 0.8
colvars:   # upperBoundary = 6.5
colvars:   # hardLowerBoundary = on
colvars:   # hardUpperBoundary = off [default]
colvars:   # expandBoundaries = off [default]
colvars:   # extendedLagrangian = off [default]
colvars:   # outputValue = on [default]
colvars:   # outputVelocity = off [default]
colvars:   # outputTotalForce = on
colvars:   # outputAppliedForce = on
colvars:   # subtractAppliedForce = off [default]
colvars:   # runAve = off [default]
colvars:   # corrFunc = off [default]
colvars: ----------------------------------------------------------------------
colvars: Collective variables initialized, 1 in total.
colvars: ----------------------------------------------------------------------
colvars:   Initializing a new "metadynamics" instance.
colvars:   # name = "metadynamics1" [default]
colvars:   # colvars = { d }
colvars:   # stepZeroData = off [default]
colvars:   # outputEnergy = off [default]
colvars:   # outputFreq = 0 [default]
colvars:   # timeStepFactor = 1 [default]
colvars:   # writeTISamples = on
colvars:   # writeTIPMF = on
colvars:   # hillWeight = 0.2
colvars:   # newHillFrequency = 300
colvars:   # gaussianSigmas =  [default]
colvars:   # hillWidth = 1
colvars:   Half-widths of the Gaussian hills (sigma's):
colvars:   d: 0.025
colvars:   # multipleReplicas = off [default]
colvars:   # useGrids = on [default]
colvars:   # gridsUpdateFrequency = 300 [default]
colvars:   # rebinGrids = off [default]
colvars:   # writeFreeEnergyFile = on [default]
colvars:   # keepHills = off [default]
colvars:   # keepFreeEnergyFiles = off [default]
colvars:   # writeHillsTrajectory = off [default]
colvars:   # wellTempered = off [default]
colvars:   # biasTemperature = 800
colvars:   # ebMeta = off [default]
colvars: ----------------------------------------------------------------------
colvars: Collective variables biases initialized, 1 in total.
colvars: ----------------------------------------------------------------------
colvars: Collective variables module (re)initialized.
colvars: ----------------------------------------------------------------------
colvars: Re-initialized atom group for variable "d":0/0. 1 atoms: total mass = 1.008, total charge = 0.
colvars: Re-initialized atom group for variable "d":0/1. 23 atoms: total mass = 1284.44, total charge = -2.9309e-306.
colvars: The restart output state file will be "rest.colvars.state".
colvars: The final output state file will be "out.colvars.state".
Per MPI rank memory allocation (min/avg/max) = 3.129 | 3.153 | 3.169 Mbytes
   Step          Temp         c_mTemp         PotEng         KinEng         TotEng         Press     
         0   149.51736      298.15        -2331.8522      6.5130762     -2325.3391     -18112.572    
        50   141.4112       281.98565     -2331.4961      6.1599665     -2325.3362     -17618.644    
       100   147.6388       294.40399     -2331.7733      6.4312447     -2325.342      -15114.222    
       150   147.20998      293.54889     -2331.7498      6.4125651     -2325.3372     -15322.234    
       200   158.84992      316.75991     -2332.2612      6.9196089     -2325.3416     -20212.131    
       250   150.57158      300.25221     -2331.8984      6.5589988     -2325.3394     -18041.706    
       300   157.97762      315.02046     -2332.206       6.8816108     -2325.3244     -18871.392    
       350   150.75891      300.62575     -2331.6423      6.5671587     -2325.0751     -16465.054    
       400   161.93804      322.91787     -2331.9961      7.0541294     -2324.942      -17982.031    
       450   147.55355      294.234       -2331.3869      6.4275314     -2324.9593     -17591.649    
       500   144.57403      288.29259     -2331.3844      6.2977415     -2325.0866     -17357.772    
       550   142.0888       283.33683     -2331.327       6.189483      -2325.1375     -16446.223    
       600   152.50073      304.09908     -2331.4037      6.6430336     -2324.7606     -18008.455    
       650   164.71883      328.46299     -2331.9322      7.1752624     -2324.7569     -16572.52     
       700   148.15088      295.42512     -2331.1986      6.4535512     -2324.745      -12017.738    
       750   148.42292      295.96759     -2331.487       6.4654015     -2325.0216     -19304.265    
       800   148.01227      295.14872     -2331.29        6.4475134     -2324.8425     -16744.494    
       850   144.53879      288.22232     -2331.1015      6.2962063     -2324.8053     -17815.437    
       900   137.10651      273.40174     -2330.7782      5.9724513     -2324.8058     -17442.311    
       950   141.08021      281.32562     -2330.7477      6.1455483     -2324.6022     -16350.881    
      1000   165.91691      330.85207     -2331.9602      7.2274518     -2324.7327     -17844.958    
      1050   170.37455      339.74098     -2331.9841      7.4216295     -2324.5624     -16843.946    
      1100   163.74001      326.51114     -2331.7184      7.1326242     -2324.5858     -16234.652    
      1150   162.10548      323.25176     -2331.766       7.0614232     -2324.7046     -17303.372    
      1200   141.77725      282.71558     -2331.1318      6.1759118     -2324.9559     -14247.814    
      1250   159.93382      318.92129     -2331.7361      6.9668243     -2324.7693     -16780.133    
      1300   160.26256      319.57681     -2331.6742      6.9811441     -2324.693      -15413.162    
      1350   151.65472      302.41207     -2331.2793      6.6061809     -2324.6731     -17402        
      1400   158.21587      315.49555     -2331.5451      6.8919891     -2324.6531     -18680.123    
      1450   158.25992      315.58339     -2331.5381      6.893908      -2324.6442     -15777.895    
      1500   163.32907      325.69171     -2331.9032      7.1147237     -2324.7885     -13737.987    
      1550   156.21305      311.50177     -2331.7724      6.8047451     -2324.9677     -15144.709    
      1600   147.12641      293.38224     -2331.0676      6.4089246     -2324.6587     -17937.693    
      1650   161.21691      321.47988     -2331.6635      7.0227166     -2324.6408     -15384.841    
      1700   166.03717      331.09188     -2332.2         7.2326903     -2324.9673     -15176.138    
      1750   151.97562      303.05197     -2331.36        6.6201595     -2324.7398     -15715.139    
      1800   156.38073      311.83612     -2331.8241      6.812049      -2325.0121     -18221.184    
      1850   154.97779      309.03855     -2331.3982      6.7509361     -2324.6473     -12104.365    
      1900   161.82314      322.68874     -2331.5339      7.049124      -2324.4848     -17210.462    
      1950   155.56697      310.21343     -2330.8236      6.7766014     -2324.047      -14409.247    
      2000   165.86889      330.75631     -2331.8754      7.2253599     -2324.6501     -15540.639    
      2050   179.98596      358.90692     -2331.2986      7.840309      -2323.4583     -15542.011    
      2100   186.05087      371.00084     -2331.5985      8.1045001     -2323.494      -17143.396    
      2150   159.79832      318.65109     -2330.747       6.9609217     -2323.786      -15912.426    
      2200   178.51805      355.97978     -2331.4765      7.7763657     -2323.7001     -15722.234    
      2250   172.13809      343.25762     -2330.7816      7.4984505     -2323.2831     -14678.016    
      2300   198.69811      396.22049     -2332.1642      8.6554226     -2323.5088     -19194.402    
      2350   173.04553      345.06712     -2330.7523      7.537979      -2323.2143     -14129.282    
      2400   174.58502      348.137       -2330.9267      7.6050403     -2323.3217     -16210.635    
      2450   166.6828       332.37931     -2330.5217      7.2608143     -2323.2609     -17063.619    
      2500   163.15748      325.34953     -2330.7624      7.107249      -2323.6551     -14400.302    
      2550   164.23198      327.49218     -2330.8349      7.154055      -2323.6809     -16238.011    
      2600   165.81581      330.65046     -2330.8873      7.2230476     -2323.6643     -18502.626    
      2650   166.08844      331.19411     -2330.8531      7.2349236     -2323.6181     -15517.298    
      2700   155.84011      310.75809     -2330.4858      6.7884994     -2323.6973     -17195.298    
      2750   163.80124      326.63323     -2330.5731      7.1352914     -2323.4378     -19064.993    
      2800   184.28684      367.48323     -2331.2278      8.0276581     -2323.2001     -15410.747    
      2850   179.98874      358.91245     -2331.1259      7.8404298     -2323.2855     -16818.622    
      2900   177.79775      354.54344     -2330.8691      7.7449888     -2323.1241     -17189.08     
      2950   159.47013      317.99665     -2330.1624      6.9466256     -2323.2157     -18296.052    
      3000   160.90633      320.86055     -2330.2785      7.0091873     -2323.2693     -16188.007    
      3050   177.01165      352.97589     -2331.0346      7.7107458     -2323.3239     -17357.883    
      3100   175.72065      350.40153     -2330.8117      7.654509      -2323.1572     -15655.691    
      3150   168.91672      336.83394     -2330.7055      7.3581254     -2323.3474     -18680.076    
      3200   170.32674      339.64562     -2330.9827      7.4195466     -2323.5632     -18771.816    
      3250   172.20105      343.38317     -2331.105       7.5011931     -2323.6038     -17357.343    
      3300   157.02134      313.11355     -2330.565       6.8399544     -2323.725      -17362.137    
      3350   166.52242      332.0595      -2330.6539      7.2538281     -2323.4001     -18441.405    
      3400   165.64313      330.30613     -2330.4409      7.2155256     -2323.2254     -16079.701    
      3450   162.31945      323.67844     -2330.3583      7.0707439     -2323.2875     -17973.487    
      3500   173.25249      345.47982     -2330.4717      7.5469944     -2322.9247     -16954.198    
      3550   177.91508      354.77741     -2329.6784      7.7500999     -2321.9283     -14934.497    
      3600   171.24373      341.47418     -2330.0822      7.4594914     -2322.6227     -15679.255    
      3650   174.98432      348.93324     -2329.9818      7.6224342     -2322.3593     -13435.69     
      3700   186.43886      371.77453     -2330.6768      8.1214015     -2322.5554     -16381.797    
      3750   181.73163      362.38792     -2329.9248      7.9163512     -2322.0085     -17130.24     
      3800   193.09595      385.04932     -2330.444       8.4113888     -2322.0326     -14893.589    
      3850   200.65319      400.11909     -2330.9459      8.7405873     -2322.2053     -16241.03     
      3900   204.58036      407.95018     -2330.5955      8.9116572     -2321.6838     -14821.194    
      3950   181.54043      362.00666     -2328.83        7.9080226     -2320.922      -15683.692    
      4000   212.75937      424.25981     -2330.5594      9.2679405     -2321.2914     -14032.815    
      4050   208.25448      415.27669     -2329.4143      9.0717045     -2320.3426     -16226.913    
      4100   198.0812       394.99033     -2329.0169      8.6285497     -2320.3883     -15487.857    
      4150   201.92961      402.66438     -2329.2284      8.796189      -2320.4322     -15073.526    
      4200   196.75657      392.3489      -2329.0383      8.5708478     -2320.4674     -15910.839    
      4250   209.07967      416.92218     -2329.4656      9.1076503     -2320.358      -14664.35     
      4300   191.29449      381.45705     -2328.7417      8.3329158     -2320.4088     -16837.662    
      4350   197.74691      394.32372     -2329.0575      8.6139876     -2320.4435     -12553.489    
      4400   199.22225      397.26568     -2329.1608      8.6782546     -2320.4826     -17223.944    
      4450   201.41269      401.63359     -2329.3472      8.7736715     -2320.5735     -16114.675    
      4500   209.80062      418.35982     -2329.8112      9.1390554     -2320.6722     -15496.464    
      4550   197.22799      393.28896     -2329.1091      8.5913834     -2320.5178     -17663.392    
      4600   207.92326      414.61621     -2329.625       9.0572764     -2320.5677     -15731.09     
      4650   211.52988      421.8081      -2329.8403      9.2143829     -2320.6259     -15398.467    
      4700   212.36838      423.48015     -2329.9401      9.2509088     -2320.6892     -15979.487    
      4750   197.76999      394.36975     -2329.3549      8.6149933     -2320.7399     -15353.905    
      4800   189.17149      377.22362     -2329.0484      8.2404365     -2320.808      -15868.343    
      4850   191.76882      382.40292     -2329.0355      8.3535782     -2320.6819     -14637.092    
      4900   200.51533      399.84417     -2329.4481      8.7345817     -2320.7135     -11401.927    
      4950   196.67663      392.18949     -2329.3464      8.5673655     -2320.7791     -17080.953    
      5000   201.41195      401.63212     -2329.6204      8.7736394     -2320.8467     -13605.074    
      5050   191.95326      382.7707      -2329.2546      8.3616123     -2320.893      -12127.241    
      5100   200.91549      400.64214     -2329.7018      8.7520133     -2320.9498     -16967.976    
      5150   192.78136      384.42199     -2329.0537      8.3976848     -2320.656      -16740.007    
      5200   202.95888      404.71682     -2329.5049      8.8410245     -2320.6639     -17200.268    
      5250   199.52102      397.86144     -2329.4062      8.691269      -2320.7149     -15087.723    
      5300   202.68762      404.1759      -2329.6102      8.8292082     -2320.781      -14006.693    
      5350   180.43594      359.80421     -2328.7073      7.8599101     -2320.8473     -16233.429    
      5400   189.38117      377.64174     -2329.1912      8.2495705     -2320.9416     -17295.895    
      5450   190.42933      379.73185     -2329.0572      8.2952288     -2320.762      -17118.624    
      5500   213.86404      426.46262     -2330.0717      9.3160607     -2320.7557     -16306.763    
      5550   184.51662      367.94143     -2328.8287      8.0376676     -2320.7911     -18145.796    
      5600   212.12711      422.99903     -2330.0983      9.2403988     -2320.8579     -17048.262    
      5650   191.15439      381.17768     -2329.258       8.3268129     -2320.9312     -18495.645    
      5700   180.82563      360.58128     -2328.8639      7.8768853     -2320.987      -18061.477    
      5750   185.96205      370.82374     -2328.9255      8.1006314     -2320.8248     -18038.537    
      5800   187.34294      373.57734     -2329.0551      8.1607837     -2320.8943     -17804.174    
      5850   176.45177      351.85946     -2328.6463      7.6863573     -2320.9599     -20437.468    
      5900   183.04652      365.00992     -2329.0378      7.9736288     -2321.0641     -15530.72     
      5950   188.62196      376.12781     -2329.3105      8.2164986     -2321.094      -21437.17     
      6000   176.34948      351.65546     -2328.8235      7.6819011     -2321.1416     -16907.556    
      6050   189.01401      376.90959     -2329.0852      8.2335767     -2320.8516     -13434.663    
      6100   185.81524      370.53099     -2328.9584      8.0942364     -2320.8641     -17132.838    
      6150   193.91859      386.68974     -2329.1551      8.4472236     -2320.7079     -16714.003    
      6200   194.42546      387.70048     -2329.2615      8.4693032     -2320.7922     -16620.34     
      6250   194.0602       386.97212     -2329.3445      8.4533922     -2320.8911     -18532.52     
      6300   194.93198      388.71052     -2329.4122      8.4913674     -2320.9208     -16813.415    
      6350   196.20845      391.25591     -2329.4011      8.5469714     -2320.8541     -16996.354    
      6400   180.57141      360.07436     -2328.9311      7.8658116     -2321.0653     -17522.777    
      6450   197.68484      394.19995     -2329.57        8.6112839     -2320.9587     -13258.79     
      6500   192.82928      384.51755     -2329.4717      8.3997723     -2321.0719     -16274.189    
      6550   192.32429      383.51056     -2329.4851      8.3777745     -2321.1073     -16494.518    
      6600   201.92471      402.65461     -2329.9815      8.7959756     -2321.1855     -14858.689    
      6650   192.00217      382.86823     -2329.4375      8.363743      -2321.0737     -16699.025    
      6700   180.72387      360.37838     -2329.069       7.8724528     -2321.1965     -16704.736    
      6750   191.49367      381.85424     -2329.3186      8.3415922     -2320.977      -13345.599    
      6800   190.82711      380.52507     -2329.3799      8.3125566     -2321.0673     -16427.7      
      6850   194.43989      387.72924     -2329.5879      8.4699315     -2321.118      -15480.634    
      6900   192.80393      384.46701     -2329.6115      8.3986682     -2321.2128     -12352.276    
      6950   175.76218      350.48435     -2328.7965      7.6563181     -2321.1401     -14574.911    
      7000   194.92125      388.68913     -2329.6858      8.4909002     -2321.1949     -12520.51     
      7050   188.43428      375.75357     -2329.2459      8.2083234     -2321.0376     -15722.376    
      7100   202.18987      403.18335     -2329.8405      8.8075259     -2321.033      -14178.061    
      7150   207.91229      414.59432     -2329.8624      9.0567983     -2320.8056     -14669.046    
      7200   196.34887      391.53592     -2329.3808      8.5530882     -2320.8277     -14586.256    
      7250   185.04799      369.00101     -2328.5946      8.0608141     -2320.5338     -14014.464    
      7300   215.08626      428.89982     -2329.963       9.3693014     -2320.5937     -12193.346    
      7350   202.41446      403.6312      -2329.4396      8.8173093     -2320.6223     -13959.323    
      7400   199.75472      398.32746     -2329.4233      8.7014491     -2320.7219     -14187.013    
      7450   205.78793      410.35819     -2329.5646      8.9642601     -2320.6004     -15416.673    
      7500   194.38566      387.62111     -2329.1097      8.4675695     -2320.6422     -12187.83     
      7550   195.5955       390.03364     -2329.1524      8.5202709     -2320.6321     -14670.881    
      7600   184.78774      368.48206     -2328.5312      8.0494775     -2320.4817     -18445.856    
      7650   204.57251      407.93453     -2329.1159      8.9113154     -2320.2046     -14100.32     
      7700   207.10612      412.98677     -2329.2943      9.0216812     -2320.2726     -15609.607    
      7750   200.86063      400.53274     -2329.0683      8.7496235     -2320.3187     -15893.42     
      7800   199.46431      397.74835     -2329.0646      8.6887987     -2320.3758     -15970.544    
      7850   197.47733      393.78616     -2328.897       8.6022446     -2320.2947     -14554.407    
      7900   206.15491      411.08996     -2329.336       8.9802456     -2320.3558     -15896.832    
      7950   199.63972      398.09815     -2329.1347      8.6964399     -2320.4383     -14464.099    
      8000   189.26477      377.40962     -2328.7534      8.2444998     -2320.5089     -14928.649    
      8050   209.17413      417.11055     -2329.7104      9.1117652     -2320.5987     -14886.122    
      8100   198.32053      395.46756     -2329.3793      8.6389748     -2320.7404     -14255.484    
      8150   189.29119      377.46231     -2328.958       8.2456507     -2320.7124     -17043.942    
      8200   192.31419      383.49042     -2329.2141      8.3773346     -2320.8368     -16442.207    
      8250   174.0911       347.15207     -2328.695       7.5835247     -2321.1115     -15989.825    
      8300   193.06262      384.98285     -2329.4414      8.4099367     -2321.0314     -18821.616    
      8350   196.08903      391.01778     -2329.6363      8.5417694     -2321.0945     -18535.346    
      8400   188.16058      375.20778     -2329.3757      8.1964006     -2321.1793     -14399.985    
      8450   191.59648      382.05926     -2329.4141      8.346071      -2321.068      -17822.917    
      8500   174.93362      348.83214     -2328.8245      7.6202257     -2321.2042     -17801.672    
      8550   179.19568      357.33104     -2329.0377      7.8058838     -2321.2318     -15005.384    
      8600   175.52177      350.00496     -2328.9402      7.6458459     -2321.2944     -15539.346    
      8650   175.63889      350.23849     -2328.9246      7.6509473     -2321.2737     -13824.797    
      8700   189.4999       377.87849     -2329.554       8.2547422     -2321.2993     -16429.134    
      8750   186.18477      371.26785     -2329.2439      8.110333      -2321.1336     -15643.674    
      8800   173.54951      346.07211     -2328.7478      7.5599329     -2321.1879     -16554.95     
      8850   180.97775      360.88463     -2329.1391      7.8835118     -2321.2556     -16453.502    
      8900   201.6072       402.02147     -2330.1162      8.7821447     -2321.334      -16445.09     
      8950   173.39648      345.76694     -2328.9413      7.5532666     -2321.3881     -14193.038    
      9000   191.38489      381.63732     -2329.8334      8.3368536     -2321.4965     -16526.753    
      9050   185.55768      370.01738     -2329.4747      8.0830165     -2321.3917     -15841.447    
      9100   172.05058      343.08312     -2328.9358      7.4946385     -2321.4412     -16408.884    
      9150   169.94693      338.88826     -2328.9104      7.4030021     -2321.5074     -19460.382    
      9200   163.98316      326.99601     -2328.7108      7.1432162     -2321.5676     -14038.174    
      9250   174.25318      347.47528     -2329.2061      7.5905852     -2321.6155     -20122.867    
      9300   185.82263      370.54572     -2329.7461      8.0945581     -2321.6516     -14985.508    
      9350   164.5374       328.1012      -2328.6963      7.1673591     -2321.5289     -17921.03     
      9400   191.8173       382.49959     -2329.9604      8.3556899     -2321.6047     -15493.971    
      9450   174.23766      347.44434     -2329.2526      7.5899092     -2321.6627     -16815.335    
      9500   184.47601      367.86044     -2329.6829      8.0358984     -2321.647      -18177.425    
      9550   194.47305      387.79537     -2330.0577      8.4713761     -2321.5863     -17029.151    
      9600   183.13638      365.18912     -2329.6534      7.9775433     -2321.6758     -15099.462    
      9650   183.14236      365.20104     -2329.6174      7.9778037     -2321.6396     -16717.259    
      9700   185.29832      369.5002      -2329.3791      8.0717187     -2321.3074     -15408.769    
      9750   190.36121      379.59602     -2329.8231      8.2922617     -2321.5308     -19688.748    
      9800   202.95906      404.71718     -2330.1747      8.8410325     -2321.3336     -16349.471    
      9850   189.47658      377.83201     -2329.5207      8.2537268     -2321.267      -17589.426    
      9900   175.38136      349.72496     -2328.761       7.6397294     -2321.1212     -19071.511    
      9950   186.13713      371.17286     -2329.2587      8.1082579     -2321.1505     -17233.195    
     10000   194.03683      386.92551     -2329.6209      8.452374      -2321.1685     -14855.223    
     10050   184.98191      368.86926     -2329.2153      8.0579359     -2321.1574     -17568.918    
     10100   183.13524      365.18684     -2329.2233      7.9774936     -2321.2458     -15629.124    
     10150   202.05439      402.91318     -2330.1359      8.8016242     -2321.3343     -16249.861    
     10200   205.16973      409.12543     -2330.2605      8.9373305     -2321.3231     -15093.212    
     10250   163.34019      325.71387     -2328.3023      7.1152079     -2321.1871     -13989.663    
     10300   189.17466      377.22994     -2329.0522      8.2405747     -2320.8117     -14968.881    
     10350   205.64743      410.078       -2329.6259      8.9581394     -2320.6678     -17288.475    
     10400   204.10338      406.99906     -2329.4916      8.89088       -2320.6007     -15522.054    
     10450   198.75352      396.33099     -2329.1365      8.6578364     -2320.4787     -17628.752    
     10500   203.01399      404.82672     -2329.4291      8.8434252     -2320.5857     -14339.321    
     10550   199.20531      397.23188     -2329.1448      8.6775164     -2320.4673     -14930.172    
     10600   198.33507      395.49655     -2329.0955      8.6396081     -2320.4559     -14759.808    
     10650   198.99777      396.81804     -2329.0449      8.668476      -2320.3765     -16959.915    
     10700   197.44014      393.71199     -2328.9735      8.6006244     -2320.3728     -16579.198    
     10750   178.65783      356.25852     -2328.3682      7.7824547     -2320.5857     -15760.697    
     10800   184.89894      368.7038      -2328.7073      8.0543215     -2320.6529     -15091.306    
     10850   185.5374       369.97694     -2328.4019      8.0821331     -2320.3198     -15056.855    
     10900   195.47356      389.79047     -2328.8926      8.514959      -2320.3777     -16037.116    
     10950   195.62851      390.09946     -2328.9353      8.5217089     -2320.4136     -18459.705    
     11000   203.21347      405.22449     -2329.0733      8.8521145     -2320.2212     -16657.319    
     11050   209.96721      418.69201     -2329.3504      9.1463122     -2320.2041     -18930.337    
     11100   205.96391      410.70909     -2329.117       8.9719256     -2320.145      -16437.884    
     11150   228.80575      456.25762     -2329.3588      9.9669316     -2319.3919     -14169.861    
     11200   232.00874      462.64464     -2329.5487      10.106456     -2319.4422     -19424.867    
     11250   213.83972      426.41412     -2328.6271      9.3150014     -2319.3121     -16386.062    
     11300   201.69597      402.19846     -2328.2208      8.7860112     -2319.4347     -13436.003    
     11350   203.37134      405.53929     -2328.2493      8.8589914     -2319.3903     -15625.892    
     11400   206.32222      411.42359     -2328.4991      8.9875338     -2319.5116     -18115.636    
     11450   202.34868      403.50004     -2328.0717      8.814444      -2319.2572     -12619.722    
     11500   205.42561      409.63569     -2328.3001      8.948477      -2319.3516     -18481.049    
     11550   200.07117      398.95849     -2328.1705      8.7152341     -2319.4553     -15879.047    
     11600   194.40075      387.6512      -2327.9835      8.4682266     -2319.5152     -13371.847    
     11650   194.01289      386.87777     -2328.0979      8.4513312     -2319.6465     -14997.761    
     11700   199.4536       397.727       -2328.28        8.6883322     -2319.5917     -15629.963    
     11750   205.01975      408.82636     -2328.4016      8.9307974     -2319.4708     -19800.931    
     11800   193.13443      385.12605     -2328.1467      8.4130649     -2319.7336     -12662.623    
     11850   193.57286      386.00031     -2328.1065      8.4321632     -2319.6743     -15689.647    
     11900   197.11412      393.06188     -2328.4034      8.5864229     -2319.817      -13273.516    
     11950   198.40651      395.63901     -2328.3447      8.6427202     -2319.702      -14742.32     
     12000   197.48201      393.7955      -2328.3243      8.6024486     -2319.7219     -14988.51     
     12050   204.21134      407.21434     -2327.9069      8.8955828     -2319.0113     -17903.704    
     12100   190.34805      379.56979     -2327.4692      8.2916885     -2319.1776     -16641.888    
     12150   199.13636      397.0944      -2327.9735      8.6745132     -2319.2989     -16487.576    
     12200   192.39481      383.6512      -2327.7849      8.3808468     -2319.4041     -17776.61     
     12250   186.3241       371.5457      -2327.1902      8.1164026     -2319.0738     -18402.592    
     12300   212.65275      424.04719     -2328.0175      9.2632959     -2318.7542     -18932.338    
     12350   194.39113      387.63201     -2327.3513      8.4678075     -2318.8835     -18930.392    
     12400   186.4644       371.82546     -2327.0954      8.1225139     -2318.9729     -14986.342    
     12450   210.86506      420.4824      -2328.2226      9.1854231     -2319.0372     -17459.52     
     12500   211.3209       421.39139     -2328.3785      9.2052799     -2319.1732     -15498.726    
     12550   199.19215      397.20565     -2327.9393      8.6769433     -2319.2624     -16765.207    
     12600   207.78522      414.34095     -2328.2458      9.0512633     -2319.1945     -13833.064    
     12650   209.54633      417.85275     -2328.1285      9.1279784     -2319.0005     -18596.535    
     12700   191.90712      382.6787      -2326.9589      8.3596027     -2318.5993     -18107.582    
     12750   200.57865      399.97045     -2327.5583      8.7373402     -2318.821      -18620.77     
     12800   213.61102      425.95807     -2327.8268      9.3050389     -2318.5217     -17463.233    
     12850   195.20245      389.24985     -2327.4509      8.5031493     -2318.9477     -15750.058    
     12900   214.79548      428.31997     -2328.3419      9.3566346     -2318.9853     -14450.345    
     12950   201.93334      402.6718      -2327.7851      8.7963513     -2318.9887     -16669.371    
     13000   196.94556      392.72575     -2327.4311      8.5790801     -2318.852      -14245.932    
     13050   201.67057      402.14783     -2327.3944      8.7849051     -2318.6095     -17315.622    
     13100   203.23425      405.26593     -2327.8182      8.8530199     -2318.9652     -16783.684    
     13150   182.26785      363.45718     -2326.9415      7.9397093     -2319.0018     -15383.509    
     13200   186.57335      372.04271     -2327.2144      8.1272599     -2319.0872     -14902.113    
     13250   200.59854      400.0101      -2327.3729      8.7382064     -2318.6347     -15612.204    
     13300   212.79771      424.33627     -2327.9658      9.2696108     -2318.6962     -13536.199    
     13350   197.61938      394.06942     -2327.1248      8.6084324     -2318.5164     -18986.89     
     13400   185.4287       369.76018     -2326.5765      8.077398      -2318.4991     -13585.489    
     13450   190.95141      380.77294     -2326.9569      8.3179713     -2318.6389     -16238.028    
     13500   218.42133      435.55023     -2327.9872      9.5145794     -2318.4726     -15080.338    
     13550   201.44109      401.69023     -2327.1626      8.7749088     -2318.3877     -13633.138    
     13600   224.072        446.81814     -2328.1659      9.7607264     -2318.4052     -17833.758    
     13650   213.36186      425.46122     -2328.2085      9.2941853     -2318.9143     -15304.356    
     13700   206.27515      411.32973     -2327.7855      8.9854834     -2318.8001     -11381.092    
     13750   225.43347      449.53301     -2328.6497      9.8200326     -2318.8297     -17897.775    
     13800   218.71194      436.12973     -2328.4616      9.5272384     -2318.9343     -14040.671    
     13850   189.47326      377.82538     -2327.5864      8.253582      -2319.3328     -15483.166    
     13900   223.11542      444.91063     -2328.9406      9.719057      -2319.2215     -17386.954    
     13950   212.46985      423.68248     -2328.3825      9.2553287     -2319.1272     -14649.54     
     14000   231.51338      461.65686     -2329.3245      10.084878     -2319.2396     -14911.438    
     14050   244.79678      488.14505     -2328.4406      10.663511     -2317.7771     -17106.573    
     14100   239.5329       477.64845     -2327.2096      10.434213     -2316.7753     -14441.9      
     14150   284.46923      567.25521     -2328.4917      12.39167      -2316.1        -16537.607    
     14200   252.73978      503.98406     -2327.6003      11.009514     -2316.5908     -15377.27     
     14250   254.44522      507.38485     -2327.9471      11.083804     -2316.8633     -19457.326    
     14300   250.15764      498.83505     -2328.0644      10.897034     -2317.1674     -15633.564    
     14350   234.64272      467.89702     -2327.6523      10.221194     -2317.4311     -13701.948    
     14400   223.34371      445.36586     -2327.2625      9.7290015     -2317.5335     -16869.819    
     14450   211.26591      421.28173     -2326.7889      9.2028845     -2317.5861     -14434.983    
     14500   235.88042      470.36511     -2327.908       10.275109     -2317.6329     -17774.981    
     14550   238.0714       474.73409     -2328.1034      10.370549     -2317.7328     -16060.126    
     14600   238.59766      475.7835      -2327.8933      10.393474     -2317.4999     -17080.02     
     14650   202.40535      403.61304     -2326.6392      8.8169126     -2317.8223     -14972.805    
     14700   227.90135      454.45417     -2327.7202      9.9275351     -2317.7927     -19461.404    
     14750   249.85445      498.23047     -2328.4814      10.883827     -2317.5975     -14155.337    
     14800   222.14722      442.97997     -2327.8138      9.6768816     -2318.137      -15586.524    
     14850   212.38032      423.50395     -2327.5118      9.2514287     -2318.2604     -13291.393    
     14900   226.22258      451.10657     -2328.2499      9.854407      -2318.3955     -13559.936    
     14950   227.22832      453.11209     -2328.3566      9.8982176     -2318.4584     -15160.542    
     15000   230.4944       459.62492     -2328.7447      10.04049      -2318.7042     -13604.27     
     15050   240.04483      478.66928     -2329.072       10.456513     -2318.6155     -15979.068    
     15100   208.27318      415.31398     -2327.8514      9.0725191     -2318.7789     -17341.096    
     15150   209.11374      416.99012     -2328.1736      9.1091343     -2319.0645     -15999.577    
     15200   224.27028      447.21352     -2328.9077      9.7693635     -2319.1384     -14315.301    
     15250   229.04844      456.74156     -2328.4901      9.9775031     -2318.5126     -15778.181    
     15300   217.7162       434.14413     -2328.378       9.4838631     -2318.8941     -15892.258    
     15350   230.70607      460.04701     -2328.3971      10.049711     -2318.3474     -13647.006    
     15400   218.42675      435.56104     -2327.5752      9.5148154     -2318.0603     -16440.312    
     15450   214.5749       427.88013     -2328.1634      9.3470262     -2318.8164     -18152.446    
     15500   213.23916      425.21654     -2327.8771      9.2888402     -2318.5883     -15746.424    
     15550   224.93441      448.53784     -2328.4717      9.7982931     -2318.6734     -15364.423    
     15600   215.19268      429.11203     -2328.6942      9.3739371     -2319.3202     -19387.635    
     15650   191.33977      381.54735     -2327.3848      8.3348883     -2319.0499     -16373.274    
     15700   230.99377      460.62071     -2329.0695      10.062243     -2319.0073     -18973.019    
     15750   212.88851      424.51733     -2328.4023      9.2735661     -2319.1287     -14278.589    
     15800   199.0644       396.9509      -2327.7392      8.6713782     -2319.0678     -16010.506    
     15850   224.56155      447.79434     -2329.1569      9.7820514     -2319.3749     -17122.943    
     15900   213.05713      424.85357     -2328.7809      9.2809111     -2319.5        -12703.083    
     15950   211.84281      422.43211     -2328.6278      9.2280143     -2319.3998     -16447.551    
     16000   193.12333      385.10392     -2327.8797      8.4125815     -2319.4671     -17031.055    
     16050   215.76808      430.25942     -2329.0454      9.3990017     -2319.6464     -16938.924    
     16100   190.72615      380.32375     -2327.8648      8.3081589     -2319.5566     -16293.682    
     16150   230.32394      459.28502     -2328.8347      10.033065     -2318.8016     -13585.122    
     16200   190.19068      379.25597     -2327.1888      8.2848331     -2318.9039     -17217.895    
     16250   205.46034      409.70494     -2327.9593      8.9499899     -2319.0093     -19870.429    
     16300   221.15689      441.00516     -2328.7566      9.6337421     -2319.1229     -19184.124    
     16350   232.93211      464.48593     -2329.3685      10.146679     -2319.2219     -22338.049    
     16400   238.3884       475.36622     -2329.7344      10.384358     -2319.35       -23657.338    
     16450   212.05745      422.86013     -2328.6893      9.2373644     -2319.4519     -17181.512    
     16500   205.98877      410.75868     -2328.5324      8.9730087     -2319.5594     -17742.634    
     16550   218.32326      435.35468     -2329.1893      9.5103074     -2319.679      -21450.388    
     16600   196.16805      391.17535     -2328.322       8.5452117     -2319.7768     -20359.672    
     16650   212.66738      424.07638     -2329.1458      9.2639334     -2319.8819     -21560.445    
     16700   214.43271      427.59658     -2329.341       9.3408321     -2320.0002     -22737.078    
     16750   211.50535      421.7592      -2329.3275      9.2133147     -2320.1142     -20282.255    
     16800   184.4908       367.88994     -2328.2472      8.0365428     -2320.2107     -16403.969    
     16850   184.83597      368.57824     -2328.376       8.0515785     -2320.3244     -18851.312    
     16900   203.13682      405.07165     -2329.2774      8.8487759     -2320.4286     -15715.357    
     16950   196.24475      391.32829     -2329.0769      8.5485526     -2320.5284     -15444.683    
     17000   201.73491      402.27612     -2329.4101      8.7877076     -2320.6224     -13944.168    
     17050   204.70583      408.20039     -2329.6287      8.9171229     -2320.7116     -17860.275    
     17100   189.75523      378.38765     -2329.0873      8.2658647     -2320.8214     -13164.057    
     17150   184.572        368.05187     -2328.9435      8.0400799     -2320.9034     -17139.384    
     17200   180.87041      360.67058     -2328.8734      7.878836      -2320.9946     -15302.153    
     17250   205.38522      409.55514     -2330.0282      8.9467175     -2321.0815     -15833.553    
     17300   195.85758      390.55623     -2329.7097      8.5316871     -2321.178      -15309.43     
     17350   203.4913       405.7785      -2330.1414      8.8642169     -2321.2772     -18103.024    
     17400   209.30584      417.37318     -2330.4925      9.1175022     -2321.375      -16384.814    
     17450   198.53352      395.89228     -2330.1248      8.6482528     -2321.4766     -19796.065    
     17500   204.51136      407.8126      -2330.4756      8.9086517     -2321.5669     -18754.687    
     17550   188.45224      375.78938     -2329.8517      8.2091057     -2321.6426     -19771.898    
     17600   208.70485      416.17476     -2330.8607      9.0913229     -2321.7694     -18334.176    
     17650   217.13012      432.97545     -2331.3309      9.4583334     -2321.8726     -20383.405    
     17700   215.44071      429.60663     -2331.3598      9.3847416     -2321.975      -20669.879    
     17750   202.72841      404.25725     -2330.9081      8.8309852     -2322.0771     -16689.915    
     17800   191.6512       382.16838     -2330.5221      8.3484546     -2322.1736     -19157.652    
     17850   181.24221      361.41198     -2330.1584      7.8950318     -2322.2634     -17488.305    
     17900   171.80176      342.58695     -2329.8272      7.4837997     -2322.3434     -20672.129    
     17950   181.03275      360.99429     -2330.3169      7.8859075     -2322.431      -20202.687    
     18000   175.29752      349.55778     -2330.1653      7.6360773     -2322.5292     -19121.035    
     18050   184.76252      368.43178     -2330.6655      8.0483791     -2322.6171     -18907.101    
     18100   185.42627      369.75533     -2330.7711      8.0772921     -2322.6939     -19830.789    
     18150   176.84828      352.65012     -2330.4822      7.7036294     -2322.7786     -20340.924    
     18200   175.4446       349.85106     -2330.5107      7.642484      -2322.8682     -17839.034    
     18250   193.14511      385.14736     -2331.3616      8.4135303     -2322.948      -20065.492    
     18300   173.76038      346.49258     -2330.5984      7.5691182     -2323.0293     -17762.875    
     18350   173.96686      346.90432     -2330.6864      7.5781126     -2323.1083     -19671.056    
     18400   192.19195      383.24666     -2331.5634      8.3720098     -2323.1914     -21058.674    
     18450   184.38325      367.67547     -2331.3024      8.0318576     -2323.2706     -19529.249    
     18500   176.14376      351.24525     -2331.028       7.67294       -2323.3551     -17659.658    
     18550   173.95107      346.87284     -2331.0136      7.5774249     -2323.4362     -19616.294    
     18600   169.24524      337.48902     -2330.8928      7.3724357     -2323.5204     -14653.117    
     18650   177.09733      353.14675     -2331.3076      7.7144781     -2323.5931     -20017.152    
     18700   166.26787      331.55191     -2330.9053      7.2427397     -2323.6625     -17027.328    
     18750   171.81077      342.6049      -2331.2187      7.4841919     -2323.7345     -15283.958    
     18800   159.51289      318.08191     -2330.7457      6.9484881     -2323.7973     -18942.423    
     18850   171.04368      341.07527     -2331.3154      7.4507772     -2323.8647     -19410.634    
     18900   189.19698      377.27446     -2332.1875      8.2415472     -2323.946      -18307.385    
     18950   192.54736      383.95539     -2332.4006      8.3874918     -2324.0131     -18620.126    
     19000   173.37731      345.72872     -2331.6459      7.5524317     -2324.0934     -21496.913    
     19050   170.0081       339.01024     -2331.5683      7.4056666     -2324.1626     -20082.257    
     19100   169.70152      338.39889     -2331.624       7.3923118     -2324.2317     -22518.825    
     19150   177.59688      354.14289     -2332.0415      7.736239      -2324.3052     -20703.439    
     19200   172.05437      343.09067     -2331.8683      7.4948036     -2324.3735     -22004.762    
     19250   158.3675       315.79791     -2331.336       6.8985941     -2324.4374     -21158.394    
     19300   166.83018      332.67319     -2331.7741      7.2672341     -2324.5069     -24813.632    
     19350   187.72705      374.34329     -2332.7581      8.1775159     -2324.5806     -20298.92     
     19400   177.74642      354.44109     -2332.3925      7.742753      -2324.6497     -20385.24     
     19450   183.86756      366.64714     -2332.7347      8.0093937     -2324.7253     -21149.59     
     19500   179.90801      358.75147     -2332.6214      7.8369132     -2324.7845     -18275.646    
     19550   174.3109       347.59038     -2332.4574      7.5930996     -2324.8643     -20531.355    
     19600   184.51511      367.93842     -2332.9765      8.0376017     -2324.9389     -19124.44     
     19650   173.02314      345.02247     -2332.5373      7.5370037     -2325.0003     -20680.848    
     19700   180.13851      359.21111     -2332.9187      7.8469538     -2325.0718     -22904.056    
     19750   163.30913      325.65194     -2332.2542      7.113855      -2325.1403     -22507.925    
     19800   165.76851      330.55614     -2332.4197      7.2209871     -2325.1987     -21844.023    
     19850   169.10891      337.21718     -2332.6382      7.3664972     -2325.2717     -18321.209    
     19900   173.76139      346.49461     -2332.9107      7.5691625     -2325.3416     -19806.513    
     19950   164.38021      327.78776     -2332.5658      7.1605119     -2325.4053     -21607.429    
     20000   162.58718      324.21231     -2332.5523      7.0824065     -2325.4699     -21257.617    
     20050   148.9247       296.96818     -2332.024       6.4872594     -2325.5368     -21242.695    
     20100   164.46941      327.96563     -2332.7626      7.1643976     -2325.5982     -21705.121    
     20150   166.35568      331.727       -2332.911       7.2465645     -2325.6644     -19182.656    
     20200   158.25989      315.58333     -2332.6198      6.8939067     -2325.7259     -18263.198    
     20250   163.29538      325.62452     -2332.901       7.1132561     -2325.7877     -21983.638    
     20300   151.45951      302.02281     -2332.4357      6.5976777     -2325.838      -18979.988    
     20350   163.19687      325.42808     -2333.0105      7.1089648     -2325.9016     -22074.786    
     20400   153.36135      305.81523     -2332.6384      6.6805228     -2325.9578     -21234.968    
     20450   161.14417      321.33483     -2333.0461      7.0195479     -2326.0265     -19149.45     
     20500   158.06869      315.20206     -2332.9626      6.8855779     -2326.077      -18320.4      
     20550   158.65927      316.37973     -2333.0493      6.9113039     -2326.138      -22279.646    
     20600   136.72842      272.64779     -2332.1381      5.9559813     -2326.1821     -18972.556    
     20650   164.68334      328.39222     -2333.4212      7.1737163     -2326.2475     -21278.522    
     20700   161.43086      321.90651     -2333.3331      7.0320363     -2326.3011     -18973.959    
     20750   149.83275      298.77892     -2332.8787      6.5268149     -2326.3519     -17809.573    
     20800   159.46826      317.99292     -2333.359       6.9465441     -2326.4125     -18952.444    
     20850   137.73427      274.65354     -2332.4547      5.9997969     -2326.4549     -16250.17     
     20900   154.20138      307.49033     -2333.2183      6.7171153     -2326.5012     -18719.632    
     20950   154.08989      307.26801     -2333.2714      6.7122587     -2326.5592     -17083.528    
     21000   155.7748       310.62786     -2333.3932      6.7856545     -2326.6075     -16683.074    
     21050   144.05245      287.25252     -2332.9314      6.2750211     -2326.6564     -18077.027    
     21100   158.41448      315.8916      -2333.6148      6.9006408     -2326.7142     -14199.127    
     21150   168.89472      336.79006     -2334.1156      7.3571669     -2326.7585     -18443.46     
     21200   157.12288      313.31603     -2333.6486      6.8443775     -2326.8042     -16776.023    
     21250   143.67698      286.5038      -2333.1048      6.2586653     -2326.8461     -16981.96     
     21300   148.15127      295.42591     -2333.3492      6.4535685     -2326.8957     -16308.73     
     21350   144.00414      287.15618     -2333.2081      6.2729166     -2326.9352     -14302.049    
     21400   149.39065      297.89734     -2333.4903      6.5075567     -2326.9828     -18989.67     
     21450   160.3143       319.68        -2334.0053      6.9833982     -2327.0219     -17170.355    
     21500   147.06274      293.25528     -2333.4668      6.4061513     -2327.0607     -16698.392    
     21550   160.93532      320.91837     -2334.1174      7.0104504     -2327.1069     -17462.531    
     21600   137.3333       273.85398     -2333.1253      5.9823306     -2327.1429     -20020.196    
     21650   153.99055      307.06992     -2333.8899      6.7079315     -2327.182      -16961.289    
     21700   146.0696       291.27488     -2333.5835      6.3628894     -2327.2206     -21408.897    
     21750   152.65439      304.40549     -2333.9112      6.6497271     -2327.2614     -21116.839    
     21800   164.04681      327.12293     -2334.4495      7.1459888     -2327.3035     -20767.449    
     21850   153.73095      306.55225     -2334.0495      6.696623      -2327.3528     -20919.214    
     21900   156.56061      312.19483     -2334.217       6.8198849     -2327.3971     -21273.479    
     21950   150.90954      300.92613     -2334.0152      6.5737207     -2327.4415     -19033.92     
     22000   131.13897      261.50197     -2333.1817      5.7125013     -2327.4692     -19881.525    
     22050   136.99456      273.17849     -2333.4724      5.9675745     -2327.5048     -20422.457    
     22100   147.44803      294.02358     -2333.9601      6.4229346     -2327.5372     -20082.534    
     22150   135.78925      270.77502     -2333.485       5.9150707     -2327.5699     -19756.636    
     22200   142.64426      284.44448     -2333.8144      6.2136796     -2327.6008     -19658.809    
     22250   143.25143      285.65521     -2333.8795      6.240128      -2327.6394     -20501.07     
     22300   137.11652      273.42169     -2333.6453      5.9728872     -2327.6725     -18793.683    
     22350   144.0309       287.20956     -2333.9858      6.2740825     -2327.7117     -21646.985    
     22400   151.54815      302.19957     -2334.3513      6.6015388     -2327.7498     -20383.875    
     22450   147.40783      293.94342     -2334.1954      6.4211835     -2327.7742     -21718.367    
     22500   146.49846      292.13006     -2334.1864      6.3815709     -2327.8048     -20781.77     
     22550   146.1169       291.3692      -2334.2011      6.3649497     -2327.8361     -19793.302    
     22600   133.72534      266.65941     -2333.6891      5.8251654     -2327.8639     -20575.112    
     22650   144.18015      287.50717     -2334.1804      6.2805839     -2327.8998     -22293.49     
     22700   138.20345      275.58912     -2333.9526      6.0202346     -2327.9324     -18169.085    
     22750   141.97298      283.10589     -2334.1432      6.1844382     -2327.9588     -24694.597    
     22800   149.36559      297.84736     -2334.4985      6.5064649     -2327.992      -20407.227    
     22850   150.04755      299.20725     -2334.5565      6.5361717     -2328.0204     -21404.474    
     22900   142.10436      283.36786     -2334.232       6.1901609     -2328.0418     -22010.275    
     22950   139.98387      279.13943     -2334.1684      6.097791      -2328.0706     -18284.051    
     23000   152.83907      304.77376     -2334.7579      6.657772      -2328.1001     -19156.028    
     23050   148.44649      296.0146      -2334.5894      6.4664285     -2328.123      -19777.143    
     23100   145.2382       289.61701     -2334.4715      6.3266733     -2328.1448     -18536.751    
     23150   155.5736       310.22665     -2334.9468      6.7768901     -2328.1699     -19356.005    
     23200   150.89254      300.89223     -2334.7727      6.5729801     -2328.1997     -19711.326    
     23250   143.43026      286.01181     -2334.4658      6.2479179     -2328.2179     -19669.726    
     23300   145.02379      289.18945     -2334.5661      6.3173332     -2328.2487     -19701.499    
     23350   140.77763      280.72226     -2334.4092      6.1323678     -2328.2769     -19315.643    
     23400   143.61836      286.3869      -2334.5489      6.2561118     -2328.2928     -21258.082    
     23450   148.12982      295.38314     -2334.7773      6.4526342     -2328.3247     -19832.89     
     23500   151.75051      302.60308     -2334.9617      6.6103536     -2328.3513     -21397.582    
     23550   151.84182      302.78516     -2334.9844      6.6143311     -2328.3701     -17744.806    
     23600   155.55185      310.18328     -2335.174       6.7759428     -2328.398      -19140.721    
     23650   144.09365      287.33467     -2334.6945      6.2768158     -2328.4177     -19261.933    
     23700   147.57051      294.26783     -2334.8737      6.4282702     -2328.4454     -17381.63     
     23750   149.87452      298.86222     -2334.9934      6.5286345     -2328.4648     -15875.806    
     23800   137.3659       273.91899     -2334.4722      5.9837507     -2328.4884     -18611.081    
     23850   141.36137      281.88629     -2334.6627      6.1577959     -2328.5049     -20637.213    
     23900   145.88718      290.91112     -2334.8784      6.354943      -2328.5235     -17456.709    
     23950   131.8572       262.93417     -2334.2927      5.7437877     -2328.5489     -18632.463    
     24000   137.70602      274.59721     -2334.5628      5.9985663     -2328.5643     -18852.464    
     24050   144.35855      287.86291     -2334.8744      6.288355      -2328.586      -18474.238    
     24100   145.60166      290.34178     -2334.9479      6.3425058     -2328.6054     -21744.419    
     24150   142.14452      283.44794     -2334.8151      6.1919102     -2328.6232     -20067.906    
     24200   135.69544      270.58796     -2334.5575      5.9109843     -2328.6465     -19011.572    
     24250   150.35632      299.82296     -2335.216       6.549622      -2328.6663     -17506.331    
     24300   149.63265      298.37989     -2335.204       6.5180981     -2328.6859     -18647.697    
     24350   139.29614      277.76804     -2334.7737      6.0678329     -2328.7058     -19584.418    
     24400   141.27446      281.71297     -2334.8712      6.1540099     -2328.7172     -19489.27     
     24450   132.8105       264.83515     -2334.5179      5.7853144     -2328.7326     -18223.043    
     24500   143.58715      286.32467     -2335.0091      6.2547523     -2328.7543     -20039.722    
     24550   152.40758      303.91333     -2335.4108      6.638976      -2328.7718     -21505.875    
     24600   147.58286      294.29245     -2335.217       6.4288082     -2328.7882     -21237.081    
     24650   146.03314      291.20217     -2335.1685      6.361301      -2328.8072     -20924.727    
     24700   140.81481      280.79639     -2334.9578      6.1339872     -2328.8238     -22284.617    
     24750   141.45097      282.06495     -2334.9985      6.1616988     -2328.8368     -19801.801    
     24800   142.52472      284.2061      -2335.0625      6.2084721     -2328.854      -22250.11     
     24850   143.70505      286.55977     -2335.126       6.2598879     -2328.8662     -21902.433    
     24900   148.83703      296.79338     -2335.3727      6.4834408     -2328.8893     -17982.905    
     24950   138.889        276.95617     -2334.9465      6.0500976     -2328.8964     -19993.769    
     25000   133.34726      265.90549     -2334.7161      5.808696      -2328.9074     -19477.878    
     25050   152.75966      304.61541     -2335.582       6.6543128     -2328.9277     -20257.355    
     25100   139.08585      277.34871     -2334.9946      6.0586727     -2328.9359     -20799.259    
     25150   144.51071      288.16633     -2335.2373      6.2949833     -2328.9424     -19054.133    
     25200   144.36229      287.87037     -2335.2415      6.2885181     -2328.953      -18203.43     
     25250   145.67662      290.49125     -2335.3138      6.3457711     -2328.968      -20197.412    
     25300   135.98465      271.16466     -2334.8968      5.9235823     -2328.9732     -20134.292    
     25350   143.50256      286.156       -2335.2354      6.2510677     -2328.9843     -20649.699    
     25400   157.55084      314.16942     -2335.8581      6.8630198     -2328.9951     -17872.102    
     25450   143.23244      285.61736     -2335.2385      6.239301      -2328.9992     -21562.179    
     25500   149.18127      297.47981     -2335.5052      6.4984358     -2329.0068     -18236.876    
     25550   146.65994      292.45207     -2335.3976      6.3886052     -2329.009      -20301.618    
     25600   156.3155       311.70605     -2335.8335      6.8092076     -2329.0243     -19380.599    
     25650   140.51501      280.19857     -2335.1488      6.1209278     -2329.0279     -19865.456    
     25700   144.3752       287.8961      -2335.3277      6.2890801     -2329.0386     -18996.787    
     25750   151.70925      302.52082     -2335.6537      6.6085565     -2329.0451     -19888.168    
     25800   142.94695      285.04806     -2335.2748      6.2268648     -2329.048      -21072.654    
     25850   140.95634      281.07862     -2335.1939      6.1401524     -2329.0537     -23297.342    
     25900   129.91841      259.06807     -2334.7191      5.6593328     -2329.0597     -20839.53     
     25950   138.13456      275.45175     -2335.0912      6.0172337     -2329.0739     -19431.998    
     26000   133.41569      266.04193     -2334.8912      5.8116765     -2329.0795     -20846.051    
     26050   147.06447      293.25873     -2335.4966      6.4062266     -2329.0904     -20932.174    
     26100   143.13587      285.42478     -2335.3263      6.2350943     -2329.0912     -20228.051    
     26150   131.49201      262.20597     -2334.8203      5.7278801     -2329.0924     -23725.043    
     26200   138.38394      275.94904     -2335.1291      6.0280969     -2329.101      -21963.653    
     26250   128.59549      256.43005     -2334.6992      5.6017054     -2329.0975     -20762.018    
     26300   131.38149      261.98557     -2334.8216      5.7230655     -2329.0985     -22379.706    
     26350   145.27175      289.6839      -2335.4279      6.3281345     -2329.0997     -20346.616    
     26400   127.49601      254.23761     -2334.6523      5.5538116     -2329.0984     -22171.761    
     26450   141.36026      281.88406     -2335.261       6.1577473     -2329.1033     -19014.179    
     26500   128.38886      256.01803     -2334.6767      5.5927048     -2329.084      -22628.698    
     26550   148.58232      296.28545     -2335.5613      6.472345      -2329.0889     -20408.922    
     26600   131.60799      262.43723     -2334.8155      5.7329319     -2329.0825     -20304.562    
     26650   144.01979      287.1874      -2335.3631      6.2735986     -2329.0895     -18608.065    
     26700   138.86549      276.90929     -2335.1313      6.0490735     -2329.0823     -19539.125    
     26750   135.17063      269.54144     -2334.9599      5.8881232     -2329.0718     -19473.555    
     26800   143.85108      286.85096     -2335.3352      6.2662491     -2329.0689     -19706.791    
     26850   138.81954      276.81765     -2335.1069      6.0470718     -2329.0598     -18731.335    
     26900   129.60985      258.45278     -2334.7001      5.6458918     -2329.0542     -18483.298    
     26950   139.41028      277.99565     -2335.1192      6.0728052     -2329.0464     -19537.211    
     27000   126.32789      251.90827     -2334.5402      5.5029273     -2329.0373     -20652.445    
     27050   137.03247      273.25409     -2334.9971      5.9692259     -2329.0278     -16893.077    
     27100   132.6581       264.53123     -2334.7954      5.7786754     -2329.0168     -16731.928    
     27150   140.68136      280.53028     -2335.1375      6.128174      -2329.0094     -19454.855    
     27200   154.13978      307.36749     -2335.7188      6.714432      -2329.0044     -17108.184    
     27250   140.7148       280.59697     -2335.1123      6.1296309     -2328.9827     -19359.442    
     27300   145.5585       290.25571     -2335.3192      6.3406257     -2328.9786     -17619.989    
     27350   135.74159      270.67998     -2334.8758      5.9129946     -2328.9628     -17425.911    
     27400   142.12558      283.41018     -2335.1418      6.1910854     -2328.9507     -19894.885    
     27450   128.83881      256.91525     -2334.5548      5.6123045     -2328.9425     -19796.635    
     27500   135.71722      270.63139     -2334.8383      5.911933      -2328.9264     -18024.963    
     27550   139.9122       278.99651     -2335.0045      6.0946689     -2328.9098     -18575.933    
     27600   132.19215      263.60211     -2334.6523      5.7583786     -2328.8939     -17782.192    
     27650   136.22035      271.63466     -2334.8087      5.9338496     -2328.8749     -17308.842    
     27700   142.26022      283.67866     -2335.0624      6.1969503     -2328.8654     -18874.705    
     27750   126.09758      251.44903     -2334.334       5.4928951     -2328.8411     -19285.281    
     27800   141.32668      281.81711     -2334.9851      6.1562849     -2328.8288     -18784.838    
     27850   135.08422      269.36913     -2334.6916      5.8843592     -2328.8072     -23985.961    
     27900   136.31748      271.82834     -2334.7235      5.9380805     -2328.7855     -24538.935    
     27950   134.42077      268.04615     -2334.626       5.8554587     -2328.7705     -21983.821    
     28000   149.63326      298.38112     -2335.2702      6.5181249     -2328.7521     -19944.865    
     28050   142.47156      284.10009     -2334.9455      6.2061563     -2328.7393     -21096.053    
     28100   134.84343      268.88897     -2334.5933      5.87387       -2328.7195     -24326.317    
     28150   143.26591      285.68408     -2334.9379      6.2407587     -2328.6972     -23453.407    
     28200   138.83003      276.83858     -2334.7312      6.047529      -2328.6837     -21079.239    
     28250   134.15295      267.5121      -2334.4911      5.8437922     -2328.6473     -20050.777    
     28300   152.286        303.6709      -2335.2678      6.63368       -2328.6341     -20872.529    
     28350   147.14102      293.41138     -2335.0134      6.4095612     -2328.6039     -21900.699    
     28400   155.90237      310.88224     -2335.3897      6.7912115     -2328.5985     -21524.41     
     28450   151.17372      301.45292     -2335.1577      6.5852283     -2328.5725     -22753.587    
     28500   136.86994      272.93        -2334.4955      5.9621462     -2328.5334     -18033.88     
     28550   160.81036      320.66919     -2335.5314      7.005007      -2328.5264     -21401.386    
     28600   143.52428      286.19929     -2334.7442      6.2520134     -2328.4922     -21917.017    
     28650   146.33158      291.79729     -2334.8507      6.3743014     -2328.4764     -16054.506    
     28700   133.08143      265.3754      -2334.2461      5.7971162     -2328.4489     -19612.416    
     28750   149.66227      298.43897     -2334.9502      6.5193887     -2328.4308     -19801.539    
     28800   141.82519      282.81118     -2334.5821      6.1780002     -2328.4041     -20042.878    
     28850   137.77299      274.73075     -2334.3775      6.0014835     -2328.3761     -21307.535    
     28900   150.31834      299.74723     -2334.9128      6.5479675     -2328.3649     -18018.431    
     28950   142.07697      283.31325     -2334.5173      6.188968      -2328.3283     -20823.823    
     29000   140.93011      281.02632     -2334.454       6.1390099     -2328.315      -16579.469    
     29050   145.26591      289.67225     -2334.6215      6.3278801     -2328.2936     -17150.117    
     29100   140.99878      281.16324     -2334.4097      6.1420011     -2328.2677     -16715.279    
     29150   141.76075      282.68268     -2334.4116      6.1751932     -2328.2364     -15875.146    
     29200   146.15176      291.43871     -2334.5741      6.3664682     -2328.2076     -20044.448    
     29250   137.6051       274.39598     -2334.1827      5.9941704     -2328.1885     -14211.611    
     29300   135.88761      270.97115     -2334.0746      5.9193552     -2328.1552     -18184.743    
     29350   160.96067      320.96891     -2335.15        7.0115545     -2328.1384     -18383.301    
     29400   143.24783      285.64805     -2334.3421      6.2399715     -2328.1021     -20654.361    
     29450   141.40495      281.97319     -2334.2423      6.1596944     -2328.0826     -17415.961    
     29500   143.22198      285.5965      -2334.2931      6.2388454     -2328.0543     -17641.771    
     29550   146.68373      292.49951     -2334.4241      6.3896414     -2328.0344     -19157.266    
     29600   143.31606      285.7841      -2334.2497      6.2429435     -2328.0067     -20402.895    
     29650   150.51754      300.14444     -2334.5349      6.5566447     -2327.9782     -18153.727    
     29700   147.5349       294.19682     -2334.3772      6.426719      -2327.9505     -17684.634    
     29750   153.07515      305.24453     -2334.5916      6.668056      -2327.9235     -20375.71     
     29800   159.30701      317.67137     -2334.8393      6.9395198     -2327.8998     -17339.597    
     29850   149.33597      297.7883      -2334.372       6.5051749     -2327.8668     -22787.739    
     29900   157.92279      314.91112     -2334.7285      6.8792222     -2327.8493     -18455.821    
     29950   139.30472      277.78515     -2333.8829      6.0682067     -2327.8147     -21942.626    
     30000   156.9954       313.06183     -2334.6334      6.8388245     -2327.7945     -19181.523    
     30050   134.32121      267.84761     -2333.6175      5.8511216     -2327.7664     -19649.674    
     30100   148.09054      295.30481     -2334.1981      6.4509231     -2327.7472     -19487.904    
     30150   146.16103      291.45721     -2334.0872      6.3668723     -2327.7203     -19559.667    
     30200   142.80619      284.76736     -2333.9195      6.220733      -2327.6987     -18036.25     
     30250   138.43071      276.04231     -2333.7042      6.0301344     -2327.6741     -19687.154    
     30300   143.56729      286.28506     -2333.9018      6.253887      -2327.6479     -20442.073    
     30350   150.89591      300.89895     -2334.1888      6.5731269     -2327.6156     -20190.601    
     30400   140.31983      279.80936     -2333.7051      6.1124254     -2327.5927     -20709.882    
     30450   160.92239      320.89258     -2334.5826      7.0098871     -2327.5727     -18809.504    
     30500   155.63444      310.34796     -2334.3188      6.7795402     -2327.5393     -16880.188    
     30550   157.84577      314.75754     -2334.4         6.8758674     -2327.5242     -18476.776    
     30600   149.4008       297.91756     -2333.9998      6.5079986     -2327.4918     -17766.706    
     30650   170.18632      339.36561     -2334.8908      7.4134298     -2327.4774     -18747.046    
     30700   162.00551      323.05241     -2334.5002      7.0570685     -2327.4431     -21808.26     
     30750   153.21713      305.52765     -2334.0917      6.6742408     -2327.4174     -18965.971    
     30800   150.99877      301.10405     -2333.975       6.5776073     -2327.3974     -15763.132    
     30850   153.96177      307.01251     -2334.0828      6.7066775     -2327.3762     -17271.522    
     30900   148.84778      296.8148      -2333.8374      6.4839088     -2327.3535     -20587.706    
     30950   157.91356      314.89272     -2334.2191      6.8788202     -2327.3402     -20609.379    
     31000   165.73605      330.49141     -2334.5259      7.2195731     -2327.3064     -17320.524    
     31050   155.33647      309.75379     -2334.0561      6.7665605     -2327.2896     -18948.386    
     31100   174.93226      348.82942     -2334.8942      7.6201664     -2327.2741     -19812.508    
     31150   163.78509      326.60104     -2334.3846      7.1345881     -2327.25       -21233.532    
     31200   148.23874      295.60033     -2333.6858      6.4573787     -2327.2284     -19021.196    
     31250   140.02027      279.21201     -2333.3083      6.0993765     -2327.2089     -20193.221    
     31300   164.55546      328.13722     -2334.351       7.168146      -2327.1829     -19434.142    
     31350   145.54574      290.23027     -2333.5078      6.3400699     -2327.1678     -19629.493    
     31400   159.89554      318.84495     -2334.1266      6.9651565     -2327.1614     -21625.18     
     31450   152.57032      304.23785     -2333.7819      6.646065      -2327.1359     -19108.378    
     31500   155.13283      309.3477      -2333.8796      6.7576896     -2327.1219     -18696.694    
     31550   163.8165       326.66367     -2334.2497      7.1359563     -2327.1138     -22471.379    
     31600   172.33487      343.65001     -2334.6077      7.5070222     -2327.1007     -18757.62     
     31650   162.42799      323.89488     -2334.1464      7.0754721     -2327.0709     -17463.511    
     31700   165.51422      330.04907     -2334.2761      7.2099102     -2327.0662     -18303.847    
     31750   152.50523      304.10806     -2333.6965      6.6432298     -2327.0532     -20874.163    
     31800   152.54945      304.19623     -2333.6872      6.6451559     -2327.042      -17377.146    
     31850   150.64242      300.39347     -2333.5925      6.5620847     -2327.0304     -19674.175    
     31900   159.9341       318.92185     -2333.997       6.9668364     -2327.0302     -17306.937    
     31950   159.88822      318.83036     -2333.9797      6.9648379     -2327.0148     -21128.219    
     32000   164.25374      327.53556     -2334.1702      7.1550027     -2327.0152     -20717.87     
     32050   175.32296      349.6085      -2334.6393      7.6371854     -2327.0022     -21152.705    
     32100   166.94108      332.89433     -2334.2639      7.2720649     -2326.9918     -19416.034    
     32150   181.17617      361.28028     -2334.8798      7.892155      -2326.9876     -22408.924    
     32200   165.08131      329.1858      -2334.167       7.1910521     -2326.976      -18636.943    
     32250   178.60363      356.15043     -2334.7597      7.7800934     -2326.9796     -20257.452    
     32300   160.69489      320.43893     -2333.9706      6.9999769     -2326.9706     -21959.792    
     32350   161.7227       322.48847     -2334.0144      7.0447491     -2326.9697     -17457.184    
     32400   168.11983      335.24486     -2334.2927      7.3234121     -2326.9693     -21698.13     
     32450   149.99854      299.10952     -2333.5051      6.5340369     -2326.9711     -18060.956    
     32500   162.87588      324.78799     -2334.0675      7.0949822     -2326.9725     -19073.835    
     32550   157.83498      314.73602     -2333.8577      6.8753972     -2326.9823     -19907.917    
     32600   176.65681      352.26832     -2334.6712      7.695289      -2326.9759     -21738.463    
     32650   160.72546      320.49988     -2333.9799      7.0013086     -2326.9786     -20839.896    
     32700   161.50155      322.04746     -2334.0149      7.0351154     -2326.9798     -18904.674    
     32750   159.63466      318.32473     -2333.9381      6.9537924     -2326.9843     -20883.237    
     32800   155.6755       310.42984     -2333.7595      6.7813288     -2326.9782     -20393.75     
     32850   162.97578      324.9872      -2334.0808      7.0993338     -2326.9815     -21388.16     
     32900   153.5668       306.22493     -2333.6664      6.6894727     -2326.977      -17107.63     
     32950   154.59967      308.28456     -2333.7148      6.7344652     -2326.9803     -21608.995    
     33000   146.79482      292.72103     -2333.3847      6.3944806     -2326.9903     -16321.607    
     33050   153.52661      306.14477     -2333.6855      6.6877216     -2326.9978     -20318.581    
     33100   158.97739      317.01408     -2333.9304      6.9251613     -2327.0052     -23158.805    
     33150   154.26393      307.61505     -2333.7279      6.7198398     -2327.008      -23302.987    
     33200   165.64661      330.31305     -2334.226       7.2156769     -2327.0103     -22325.749    
     33250   171.40406      341.7939      -2334.5041      7.4664756     -2327.0376     -17482.478    
     33300   154.21499      307.51746     -2333.7516      6.7177079     -2327.0339     -22904.146    
     33350   164.37333      327.77403     -2334.2107      7.1602121     -2327.0505     -24634.573    
     33400   152.9038       304.90284     -2333.7258      6.6605918     -2327.0652     -18291.572    
     33450   154.84552      308.7748      -2333.8249      6.7451744     -2327.0797     -17931.004    
     33500   172.55104      344.08106     -2334.6056      7.5164386     -2327.0891     -22676.996    
     33550   164.41677      327.86066     -2334.2726      7.1621045     -2327.1105     -22625.761    
     33600   151.98724      303.07516     -2333.7328      6.620666      -2327.1122     -21943.097    
     33650   158.76955      316.59964     -2334.0529      6.9161079     -2327.1368     -18293.888    
     33700   172.46987      343.91921     -2334.6669      7.5129029     -2327.154      -20437.237    
     33750   155.47457      310.02918     -2333.9306      6.7725764     -2327.158      -20852.475    
     33800   157.99136      315.04786     -2334.0631      6.8822094     -2327.1809     -21676.945    
     33850   165.73573      330.49077     -2334.4216      7.2195591     -2327.2021     -17202.378    
     33900   164.08718      327.20343     -2334.3684      7.1477473     -2327.2206     -20055.342    
     33950   171.39394      341.77371     -2334.7025      7.4660345     -2327.2365     -20418.488    
     34000   169.10378      337.20694     -2334.6375      7.3662736     -2327.2712     -19386.689    
     34050   150.98126      301.06914     -2333.8584      6.5768447     -2327.2815     -20345.723    
     34100   160.73604      320.52098     -2334.3041      7.0017694     -2327.3024     -19915.756    
     34150   160.26001      319.57173     -2334.3117      6.9810331     -2327.3307     -17254.806    
     34200   163.67103      326.37359     -2334.4856      7.1296195     -2327.356      -18024.121    
     34250   158.66767      316.39648     -2334.2843      6.9116699     -2327.3726     -23616.099    
     34300   154.07375      307.23582     -2334.1092      6.7115555     -2327.3976     -18584.949    
     34350   149.0887       297.29521     -2333.9116      6.4944033     -2327.4172     -20036.976    
     34400   154.69587      308.47639     -2334.1846      6.7386557     -2327.4459     -21537.181    
     34450   150.49509      300.09968     -2334.0149      6.5556669     -2327.4593     -21487.772    
     34500   166.96133      332.93473     -2334.7871      7.2729474     -2327.5141     -19608.907    
     34550   153.34947      305.79154     -2334.2099      6.6800053     -2327.5299     -14909.936    
     34600   154.16129      307.41038     -2334.2715      6.7153688     -2327.5562     -18838.316    
[...]
    191150   137.00466      273.19865     -2336.0566      5.9680147     -2330.0886     -19499.544    
    191200   137.2857       273.75906     -2336.0444      5.980257      -2330.0641     -20841.342    
    191250   131.66608      262.55306     -2335.7816      5.7354624     -2330.0461     -23019.405    
    191300   143.10026      285.35377     -2336.2633      6.2335429     -2330.0297     -20092.969    
    191350   150.24465      299.60029     -2336.5629      6.5447576     -2330.0181     -23568.723    
    191400   140.5591       280.28649     -2336.1177      6.1228485     -2329.9949     -22398.139    
    191450   145.76059      290.65869     -2336.3242      6.3494288     -2329.9748     -20890.352    
    191500   144.37007      287.88587     -2336.2369      6.2888567     -2329.948      -19949.203    
    191550   146.12104      291.37745     -2336.2933      6.36513       -2329.9281     -21978.286    
    191600   139.42359      278.02218     -2335.9817      6.0733847     -2329.9083     -21225.81     
    191650   136.91294      273.01574     -2335.8437      5.9640191     -2329.8796     -20191.745    
    191700   136.34313      271.87949     -2335.8004      5.9391978     -2329.8612     -19805.758    
    191750   154.07566      307.23963     -2336.5491      6.7116388     -2329.8375     -21505.166    
    191800   142.87011      284.89484     -2336.036       6.2235176     -2329.8124     -23849.468    
    191850   145.22401      289.58871     -2336.1181      6.326055      -2329.792      -22741.538    
    191900   141.79129      282.74358     -2335.931       6.1765236     -2329.7545     -24998.501    
    191950   140.19431      279.55907     -2335.8397      6.106958      -2329.7327     -24020.745    
    192000   138.30653      275.79468     -2335.7278      6.0247251     -2329.7031     -20288.907    
    192050   144.52427      288.19336     -2335.9744      6.2955738     -2329.6789     -21375.383    
    192100   149.38428      297.88462     -2336.1553      6.507279      -2329.648      -21755.704    
    192150   145.05669      289.25505     -2335.9437      6.3187662     -2329.6249     -19874.303    
    192200   151.39603      301.89623     -2336.1888      6.5949124     -2329.5938     -23665.618    
    192250   144.6531       288.45026     -2335.8671      6.3011858     -2329.5659     -20644.525    
    192300   132.53188      264.27954     -2335.315       5.7731771     -2329.5418     -22163.456    
    192350   157.96251      314.99034     -2336.3977      6.8809527     -2329.5167     -24631.371    
    192400   156.68422      312.44132     -2336.3123      6.8252695     -2329.4871     -20451.201    
    192450   140.97852      281.12286     -2335.5972      6.1411188     -2329.4561     -22192.686    
    192500   148.38786      295.89769     -2335.8926      6.4638745     -2329.4287     -21208.609    
    192550   154.74677      308.57788     -2336.1416      6.7408728     -2329.4008     -22176.914    
    192600   142.81442      284.78379     -2335.5818      6.2210918     -2329.3607     -23385.621    
    192650   147.95223      295.02901     -2335.7856      6.4448983     -2329.3407     -21309.451    
    192700   147.58235      294.29144     -2335.7419      6.428786      -2329.3132     -21780.511    
    192750   138.56869      276.31745     -2335.3188      6.0361449     -2329.2826     -16741.891    
    192800   140.71012      280.58764     -2335.3895      6.129427      -2329.2601     -20322.568    
    192850   150.10222      299.31626     -2335.7771      6.538553      -2329.2385     -20508.658    
    192900   150.87933      300.86589     -2335.7887      6.5724047     -2329.2163     -18258.898    
    192950   149.09072      297.29925     -2335.6846      6.4944916     -2329.1901     -20587.287    
    193000   148.21633      295.55564     -2335.6176      6.4564024     -2329.1612     -20566.521    
    193050   143.42206      285.99546     -2335.3872      6.2475607     -2329.1397     -21610.856    
    193100   143.81377      286.77658     -2335.3839      6.2646242     -2329.1193     -20449.87     
    193150   147.48449      294.09629     -2335.5178      6.4245231     -2329.0932     -22407.25     
    193200   147.85509      294.83529     -2335.5164      6.4406665     -2329.0758     -19726.653    
    193250   154.36545      307.8175      -2335.7877      6.7242624     -2329.0635     -17933.012    
    193300   147.03082      293.19164     -2335.4442      6.4047609     -2329.0394     -20238.66     
    193350   162.77543      324.58769     -2336.1156      7.0906066     -2329.025      -20709.954    
    193400   158.50618      316.07446     -2335.9153      6.9046353     -2329.0106     -18073.055    
    193450   152.99655      305.08779     -2335.6486      6.664632      -2328.984      -19018.429    
    193500   147.86425      294.85356     -2335.409       6.4410656     -2328.968      -19216.04     
    193550   150.77034      300.64854     -2335.531       6.5676568     -2328.9633     -21744.84     
    193600   154.40013      307.88664     -2335.6722      6.7257727     -2328.9465     -21504.397    
    193650   153.13933      305.3725      -2335.606       6.6708515     -2328.9351     -19409.1      
    193700   148.80165      296.72282     -2335.3999      6.4818995     -2328.918      -21161.579    
    193750   146.26214      291.65882     -2335.2753      6.3712765     -2328.904      -22599.333    
    193800   147.17771      293.48454     -2335.3211      6.4111593     -2328.9099     -19473.239    
    193850   164.18365      327.39581     -2336.0432      7.1519498     -2328.8913     -22637.983    
    193900   157.35835      313.78558     -2335.7378      6.8546349     -2328.8831     -19867.199    
    193950   166.27258      331.56131     -2336.1211      7.242945      -2328.8781     -21862.486    
    194000   159.5199       318.09589     -2335.8195      6.9487934     -2328.8707     -23067.394    
    194050   155.33606      309.75296     -2335.6336      6.7665425     -2328.867      -22128.262    
    194100   155.69383      310.46639     -2335.6467      6.7821272     -2328.8646     -21231.823    
    194150   148.55209      296.22518     -2335.3236      6.4710285     -2328.8526     -24712.681    
    194200   157.54071      314.14922     -2335.7243      6.8625785     -2328.8617     -23039.875    
    194250   167.1984       333.40746     -2336.1377      7.2832741     -2328.8544     -21386.984    
    194300   158.94211      316.94374     -2335.7723      6.9236247     -2328.8487     -22283.26     
    194350   145.937        291.01047     -2335.2034      6.3571133     -2328.8463     -22023.947    
    194400   145.49857      290.1362      -2335.1856      6.3380149     -2328.8476     -20713.117    
    194450   158.70863      316.47815     -2335.7636      6.9134539     -2328.8501     -22375.259    
    194500   152.90352      304.90229     -2335.5034      6.6605798     -2328.8428     -22372.081    
    194550   153.19214      305.47782     -2335.5155      6.6731522     -2328.8423     -23649.921    
    194600   154.63748      308.35994     -2335.5717      6.7361119     -2328.8356     -21665.678    
    194650   158.52204      316.10609     -2335.7398      6.9053263     -2328.8345     -24984.007    
    194700   155.92747      310.93229     -2335.6253      6.7923048     -2328.833      -23928.028    
    194750   145.5736       290.28581     -2335.1824      6.3412833     -2328.8411     -21602.534    
    194800   141.05421      281.27379     -2334.9797      6.1444159     -2328.8353     -22755.162    
    194850   142.10524      283.36961     -2335.0146      6.1901991     -2328.8244     -26465.424    
    194900   150.08542      299.28277     -2335.3816      6.5378215     -2328.8438     -19741.415    
    194950   159.41402      317.88476     -2335.7784      6.9441813     -2328.8342     -21680.076    
    195000   159.8956       318.84507     -2335.8035      6.9651592     -2328.8384     -19296.795    
    195050   151.81842      302.73851     -2335.4536      6.6133119     -2328.8403     -19056.728    
    195100   166.61594      332.24599     -2336.101       7.2579019     -2328.8431     -20694.232    
    195150   154.90395      308.8913      -2335.5866      6.7477195     -2328.8389     -22724.726    
    195200   153.66486      306.42046     -2335.5368      6.693744      -2328.8431     -23528.656    
    195250   162.22644      323.49297     -2335.9228      7.0666924     -2328.8561     -19132.835    
    195300   173.8699       346.71099     -2336.4408      7.5738892     -2328.8669     -19253.59     
    195350   162.79751      324.63173     -2335.962       7.0915686     -2328.8704     -21144.326    
    195400   155.16219      309.40627     -2335.6342      6.758969      -2328.8752     -19842.282    
    195450   150.61667      300.34211     -2335.4424      6.5609627     -2328.8814     -20441.271    
    195500   156.84499      312.76191     -2335.7181      6.8322728     -2328.8858     -18702.754    
    195550   150.59353      300.29597     -2335.4533      6.5599547     -2328.8933     -20495.466    
    195600   174.48685      347.94124     -2336.5021      7.600764      -2328.9013     -22824.275    
    195650   156.95589      312.98305     -2335.7406      6.8371036     -2328.9035     -18134.963    
    195700   148.71465      296.54933     -2335.3837      6.4781096     -2328.9056     -19650.606    
    195750   155.17828      309.43834     -2335.6711      6.7596695     -2328.9115     -20328.461    
    195800   151.7072       302.51673     -2335.5282      6.6084673     -2328.9197     -21515.968    
    195850   137.67948      274.54428     -2334.928       5.99741       -2328.9306     -21051.45     
    195900   156.13671      311.34954     -2335.741       6.8014196     -2328.9396     -21140.846    
    195950   147.82645      294.77818     -2335.3874      6.4394188     -2328.948      -19470.889    
    196000   150.98233      301.07128     -2335.5308      6.5768915     -2328.9539     -23073.305    
    196050   158.98744      317.03413     -2335.8909      6.9255993     -2328.9653     -21461.107    
    196100   151.30945      301.72358     -2335.5659      6.5911409     -2328.9747     -21432.799    
    196150   148.81238      296.74422     -2335.4612      6.482367      -2328.9789     -21094.697    
    196200   151.34153      301.78754     -2335.5891      6.5925381     -2328.9966     -21256.221    
    196250   151.73168      302.56554     -2335.6089      6.6095336     -2328.9994     -22244.767    
    196300   152.83042      304.75652     -2335.6681      6.6573954     -2329.0107     -21276.401    
    196350   153.05835      305.21103     -2335.6876      6.667324      -2329.0203     -21257.792    
    196400   152.2431       303.58536     -2335.6632      6.6318114     -2329.0313     -19434.255    
    196450   154.1603       307.40841     -2335.7567      6.7153259     -2329.0414     -21519.646    
    196500   156.56839      312.21035     -2335.8743      6.820224      -2329.054      -21518.842    
    196550   155.3355       309.75186     -2335.8293      6.7665184     -2329.0628     -21722.716    
    196600   153.74153      306.57334     -2335.7753      6.6970838     -2329.0782     -22988.72     
    196650   147.64173      294.40985     -2335.5204      6.4313726     -2329.089      -21402.353    
    196700   148.43284      295.98738     -2335.5685      6.4658338     -2329.1027     -20248.648    
    196750   153.7521       306.59443     -2335.8085      6.6975445     -2329.1109     -23225.202    
    196800   152.10355      303.30708     -2335.74        6.6257325     -2329.1142     -21186.331    
    196850   159.84203      318.73825     -2336.0949      6.9628257     -2329.1321     -23129.44     
    196900   157.50724      314.08248     -2336.0083      6.8611206     -2329.1472     -21295.061    
    196950   153.66179      306.41434     -2335.8551      6.6936104     -2329.1615     -21668.154    
    197000   141.21178      281.58799     -2335.3164      6.1512796     -2329.1651     -20204.578    
    197050   147.07973      293.28916     -2335.5965      6.4068913     -2329.1896     -20962.458    
    197100   150.93347      300.97384     -2335.7689      6.5747628     -2329.1942     -21403.062    
    197150   144.02135      287.19049     -2335.4869      6.2736662     -2329.2133     -22440.157    
    197200   143.14078      285.43457     -2335.4521      6.2353082     -2329.2168     -19664.793    
    197250   164.4486       327.92414     -2336.3947      7.1634911     -2329.2312     -22074.134    
    197300   162.66136      324.36023     -2336.3333      7.0856377     -2329.2476     -19144.487    
    197350   149.98821      299.08891     -2335.7889      6.5335867     -2329.2554     -18733.824    
    197400   155.7887       310.65557     -2336.0677      6.7862598     -2329.2814     -18087.016    
    197450   148.02058      295.1653      -2335.7404      6.4478755     -2329.2925     -20600.144    
    197500   161.87482      322.7918      -2336.3552      7.0513755     -2329.3038     -21222.401    
    197550   165.05121      329.12579     -2336.5207      7.1897413     -2329.331      -22024.444    
    197600   155.58794      310.25524     -2336.1137      6.7775147     -2329.3362     -20366.839    
    197650   150.65582      300.42019     -2335.912       6.5626683     -2329.3493     -20325.44     
    197700   155.29939      309.67985     -2336.1269      6.7649454     -2329.362      -17889.101    
    197750   148.49514      296.11161     -2335.8475      6.4685475     -2329.379      -18971.138    
    197800   158.40864      315.87994     -2336.2994      6.9003861     -2329.399      -20586.577    
    197850   153.29804      305.68898     -2336.0982      6.6777649     -2329.4204     -21204.636    
    197900   154.81731      308.71853     -2336.1769      6.7439454     -2329.433      -20800.219    
    197950   155.35983      309.80037     -2336.2156      6.7675782     -2329.448      -25265.784    
    198000   150.77422      300.65629     -2336.0342      6.567826      -2329.4664     -22029.164    
    198050   154.51086      308.10745     -2336.2049      6.7305963     -2329.4743     -19257.746    
    198100   148.09959      295.32285     -2335.9426      6.4513172     -2329.4913     -23364.102    
    198150   147.38146      293.89085     -2335.9298      6.4200351     -2329.5098     -21560.968    
    198200   137.66554      274.5165      -2335.5162      5.9968031     -2329.5194     -24482.266    
    198250   137.54722      274.28056     -2335.5216      5.991649      -2329.5299     -20558.683    
    198300   143.68743      286.52465     -2335.8067      6.2591208     -2329.5475     -21222.331    
    198350   148.49364      296.10861     -2336.0363      6.4684822     -2329.5678     -20638.717    
    198400   156.45409      311.98242     -2336.3943      6.8152449     -2329.5791     -21173.299    
    198450   142.79331      284.74168     -2335.8189      6.2201719     -2329.5987     -19206.179    
    198500   135.50242      270.20304     -2335.5033      5.9025759     -2329.6007     -23822.458    
    198550   136.24073      271.6753      -2335.5555      5.9347373     -2329.6208     -22196.551    
    198600   145.19172      289.52432     -2335.9605      6.3246484     -2329.6358     -22010.804    
    198650   147.13157      293.39254     -2336.0545      6.4091497     -2329.6453     -23510.465    
    198700   152.30778      303.71434     -2336.2932      6.634629      -2329.6585     -21865.443    
    198750   143.45237      286.05591     -2335.919       6.2488811     -2329.6701     -22643.294    
    198800   152.57968      304.25653     -2336.3261      6.6464731     -2329.6796     -23174.006    
    198850   146.98467      293.09962     -2336.0902      6.4027507     -2329.6875     -23490.254    
    198900   144.392        287.92961     -2335.9952      6.2898121     -2329.7054     -20884.899    
    198950   138.23677      275.65557     -2335.7243      6.0216862     -2329.7026     -20883.165    
    199000   148.00529      295.13481     -2336.1687      6.4472094     -2329.7215     -17320.181    
    199050   150.10535      299.32249     -2336.2617      6.5386893     -2329.723      -22972.164    
    199100   147.04386      293.21764     -2336.144       6.4053288     -2329.7386     -22004.9      
    199150   150.75951      300.62694     -2336.3178      6.5671849     -2329.7507     -20867.043    
    199200   145.61455      290.36748     -2336.0997      6.3430672     -2329.7566     -23417.835    
    199250   139.44567      278.06621     -2335.8355      6.0743465     -2329.7611     -21567.094    
    199300   151.77711      302.65614     -2336.3964      6.6115126     -2329.7849     -19894.368    
    199350   144.7543       288.65207     -2336.0961      6.3055942     -2329.7905     -21787.527    
    199400   134.63897      268.48125     -2335.6688      5.8649634     -2329.8038     -20421.507    
    199450   144.85175      288.8464      -2336.1154      6.3098393     -2329.8055     -22381.83     
    199500   140.96961      281.10509     -2335.9592      6.1407307     -2329.8185     -21798.343    
    199550   144.69983      288.54345     -2336.1297      6.3032214     -2329.8265     -19660.483    
    199600   134.81278      268.82785     -2335.7074      5.8725349     -2329.8349     -20447.23     
    199650   142.48983      284.13653     -2336.0526      6.2069524     -2329.8456     -21661.498    
    199700   153.09913      305.29234     -2336.5177      6.6691004     -2329.8486     -22109.821    
    199750   155.98169      311.04042     -2336.6569      6.7946668     -2329.8622     -21396.489    
    199800   142.35627      283.87019     -2336.0691      6.2011343     -2329.868      -20703.157    
    199850   143.07834      285.31006     -2336.1106      6.2325882     -2329.878      -19189.933    
    199900   143.43973      286.0307      -2336.1375      6.2483304     -2329.8891     -21782.937    
    199950   140.83992      280.84646     -2336.0335      6.135081      -2329.8984     -20847.382    
    200000   135.43027      270.05919     -2335.8115      5.8994333     -2329.9121     -23799.421    
colvars: Saving collective variables state to "out.colvars.state".
colvars:   Writing TI PMF to file "out.metadynamics1.ti.pmf".
Loop time of 964.185 on 4 procs for 200000 steps with 338 atoms

Performance: 8.961 ns/day, 2.678 hours/ns, 207.429 timesteps/s, 70.111 katom-step/s
138.5% CPU use with 4 MPI tasks x 1 OpenMP threads

MPI task timing breakdown:
Section |  min time  |  avg time  |  max time  |%varavg| %total
---------------------------------------------------------------
Pair    | 762.54     | 854.3      | 924.04     | 235.7 | 88.60
Neigh   | 0.12139    | 2.1468     | 3.8398     |  93.4 |  0.22
Comm    | 14.923     | 81.304     | 165.99     | 715.3 |  8.43
Output  | 4.6236     | 5.531      | 6.5596     |  38.2 |  0.57
Modify  | 12.631     | 18.125     | 27.316     | 142.1 |  1.88
Other   |            | 2.774      |            |       |  0.29

Nlocal:           84.5 ave         129 max           3 min
Histogram: 1 0 0 0 0 0 0 1 1 1
Nghost:        1144.75 ave        1664 max         620 min
Histogram: 1 0 0 0 1 1 0 0 0 1
Neighs:              0 ave           0 max           0 min
Histogram: 4 0 0 0 0 0 0 0 0 0
FullNghs:        15654 ave       27130 max         277 min
Histogram: 1 0 0 0 1 0 0 1 0 1

Total # of neighbors = 62616
Ave neighs/atom = 185.25444
Neighbor list builds = 3667
Dangerous builds = 0
System init for write_data ...
Generated 0 of 6 mixed pair_coeff terms from geometric mixing rule

CITE-CITE-CITE-CITE-CITE-CITE-CITE-CITE-CITE-CITE-CITE-CITE-CITE

Your simulation uses code contributions which should be cited:
- Colvars module (Fiorin2013, plus other works listed for specific features)
The log file lists these citations in BibTeX format.

CITE-CITE-CITE-CITE-CITE-CITE-CITE-CITE-CITE-CITE-CITE-CITE-CITE

Total wall time: 0:16:28
