LAMMPS (2 Aug 2023)
OMP_NUM_THREADS environment is not set. Defaulting to 1 thread. (src/comm.cpp:98)
  using 1 OpenMP thread(s) per MPI task
Loaded 1 plugins from /work/home/baoergen22b/apprepo/deepmd/v2.2.9-dtk23.10/app/lib/deepmd_lmp
Reading data file ...
  orthogonal box = (0 0 0) to (11.328 12.015 32)
  1 by 1 by 4 MPI processor grid
  reading atoms ...
  339 atoms
  read_data CPU = 0.065 seconds
Summary of lammps deepmd module ...
  >>> Info of deepmd-kit:
  installed to:       /work/home/wys974137909/shangcheng/deepmd-kit/20240715/deepmd-kit_v2.2.9/install
  source:             v2.2.9
  source branch:      HEAD
  source commit:      be43748
  source commit at:   2024-02-04 13:44:12 +0800
  support model ver.: 1.1 
  build variant:      rocm
  build with tf inc:  /work/home/wys974137909/shangcheng/miniconda3/envs/deepmd-kit-v2.2.9/lib/python3.8/site-packages/tensorflow/include;/work/home/wys974137909/shangcheng/miniconda3/envs/deepmd-kit-v2.2.9/lib/python3.8/site-packages/tensorflow/include
  build with tf lib:  /work/home/wys974137909/shangcheng/miniconda3/envs/deepmd-kit-v2.2.9/lib/python3.8/site-packages/tensorflow/lib/libtensorflow_cc.so
  set tf intra_op_parallelism_threads: 0
  set tf inter_op_parallelism_threads: 0
  >>> Info of lammps module:
  use deepmd-kit at:  /work/home/wys974137909/shangcheng/deepmd-kit/20240715/deepmd-kit_v2.2.9/install
  source:             v2.2.9
  source branch:      HEAD
  source commit:      be43748
  source commit at:   2024-02-04 13:44:12 +0800
  build float prec:   double
  build with tf inc:  /work/home/wys974137909/shangcheng/miniconda3/envs/deepmd-kit-v2.2.9/lib/python3.8/site-packages/tensorflow/include;/work/home/wys974137909/shangcheng/miniconda3/envs/deepmd-kit-v2.2.9/lib/python3.8/site-packages/tensorflow/include
  build with tf lib:  /work/home/wys974137909/shangcheng/miniconda3/envs/deepmd-kit-v2.2.9/lib/python3.8/site-packages/tensorflow/lib/libtensorflow_cc.so
INVALID_ARGUMENT: Tensor spin_attr/ntypes_spin:0, specified in either feed_devices or fetch_devices was not found in the Graph
INVALID_ARGUMENT: Tensor spin_attr/ntypes_spin:0, specified in either feed_devices or fetch_devices was not found in the Graph
INVALID_ARGUMENT: Tensor spin_attr/ntypes_spin:0, specified in either feed_devices or fetch_devices was not found in the Graph
  >>> Info of model(s):
  using   1 model(s): graph-compress.pb 
  rcut in model:      6
  ntypes in model:    4
INVALID_ARGUMENT: Tensor spin_attr/ntypes_spin:0, specified in either feed_devices or fetch_devices was not found in the Graph
168 atoms in group fixed
171 atoms in group mobile

CITE-CITE-CITE-CITE-CITE-CITE-CITE-CITE-CITE-CITE-CITE-CITE-CITE

Your simulation uses code contributions which should be cited:
- GPU package (short-range, long-range and three-body potentials): doi:10.1016/j.cpc.2010.12.021, doi:10.1016/j.cpc.2011.10.012, doi:10.1016/j.cpc.2013.08.002, doi:10.1016/j.commatsci.2014.10.068, doi:10.1016/j.cpc.2016.10.020, doi:10.3233/APC200086
- USER-DEEPMD package:
The log file lists these citations in BibTeX format.

CITE-CITE-CITE-CITE-CITE-CITE-CITE-CITE-CITE-CITE-CITE-CITE-CITE

Generated 0 of 6 mixed pair_coeff terms from geometric mixing rule
Neighbor list info ...
  update: every = 1 steps, delay = 0 steps, check = yes
  max neighbors/atom: 2000, page size: 100000
  master list distance cutoff = 8
  ghost atom cutoff = 8
  binsize = 4, bins = 3 4 8
  1 neighbor lists, perpetual/occasional/extra = 1 0 0
  (1) pair deepmd, perpetual
      attributes: full, newton on
      pair build: full/bin/atomonly
      stencil: full/bin/3d
      bin: standard
Setting up Verlet run ...
  Unit style    : metal
  Current step  : 0
  Time step     : 0.0005
colvars: Creating proxy instance
colvars: ----------------------------------------------------------------------
colvars: Initializing the collective variables module, version 2023-05-01.
colvars: Please cite Fiorin et al, Mol Phys 2013:
colvars:   https://doi.org/10.1080/00268976.2013.813594
colvars: as well as all other papers listed below for individual features used.
colvars: This version was built with the C++11 standard or higher.
colvars: Using LAMMPS interface, version "2023-04-12".
colvars: ----------------------------------------------------------------------
colvars: Reading new configuration from file "pmf.in":
colvars: # units = "" [default]
colvars: # smp = on [default]
colvars: # colvarsTrajFrequency = 100 [default]
colvars: # colvarsRestartFrequency = 0 [default]
colvars: # scriptedColvarForces = off [default]
colvars: # scriptingAfterBiases = off [default]
colvars: ----------------------------------------------------------------------
colvars:   Initializing a new collective variable.
colvars:   # name = "d"
colvars:   Initializing a new "distance" component.
colvars:     # name = "" [default]
colvars:     # componentCoeff = 1 [default]
colvars:     # componentExp = 1 [default]
colvars:     # period = 0 [default]
colvars:     # wrapAround = 0 [default]
colvars:     # forceNoPBC = off [default]
colvars:     # scalable = on [default]
colvars:       Initializing atom group "group1".
colvars:       # name = "" [default]
colvars:       # centerToOrigin = off [default]
colvars:       # centerToReference = off [default]
colvars:       # rotateToReference = off [default]
colvars:       # atomsOfGroup = "" [default]
colvars:       # indexGroup = "" [default]
colvars:       # psfSegID =  [default]
colvars:       # atomsFile = "" [default]
colvars:       # dummyAtom = ( 0 , 0 , 0 ) [default]
colvars:       # enableFitGradients = on [default]
colvars:       # printAtomIDs = off [default]
colvars:       Atom group "group1" defined with 1 atoms requested.
colvars:       Initializing atom group "group2".
colvars:       # name = "" [default]
colvars:       # centerToOrigin = off [default]
colvars:       # centerToReference = off [default]
colvars:       # rotateToReference = off [default]
colvars:       # atomsOfGroup = "" [default]
colvars:       # indexGroup = "" [default]
colvars:       # psfSegID =  [default]
colvars:       # atomsFile = "" [default]
colvars:       # dummyAtom = ( 0 , 0 , 0 ) [default]
colvars:       # enableFitGradients = on [default]
colvars:       # printAtomIDs = off [default]
colvars:       Atom group "group2" defined with 1 atoms requested.
colvars:     # oneSiteSystemForce = off [default]
colvars:     # oneSiteTotalForce = off [default]
colvars:   All components initialized.
colvars:   # timeStepFactor = 1 [default]
colvars:   # width = 0.02
colvars:   # lowerBoundary = 0.5
colvars:   # upperBoundary = 2.2
colvars:   # hardLowerBoundary = on
colvars:   # hardUpperBoundary = on
colvars:   # expandBoundaries = off [default]
colvars:   # extendedLagrangian = off [default]
colvars:   # outputValue = on [default]
colvars:   # outputVelocity = off [default]
colvars:   # outputTotalForce = on
colvars:   # outputAppliedForce = on
colvars:   # subtractAppliedForce = off [default]
colvars:   # runAve = off [default]
colvars:   # corrFunc = off [default]
colvars: ----------------------------------------------------------------------
colvars: Collective variables initialized, 1 in total.
colvars: ----------------------------------------------------------------------
colvars:   Initializing a new "metadynamics" instance.
colvars:   # name = "metadynamics1" [default]
colvars:   # colvars = { d }
colvars:   # stepZeroData = off [default]
colvars:   # outputEnergy = off [default]
colvars:   # outputFreq = 0 [default]
colvars:   # timeStepFactor = 1 [default]
colvars:   # writeTISamples = on
colvars:   # writeTIPMF = on
colvars:   # hillWeight = 0.2
colvars:   # newHillFrequency = 500
colvars:   # gaussianSigmas =  [default]
colvars:   # hillWidth = 1
colvars:   Half-widths of the Gaussian hills (sigma's):
colvars:   d: 0.01
colvars:   # multipleReplicas = off [default]
colvars:   # useGrids = on [default]
colvars:   # gridsUpdateFrequency = 500 [default]
colvars:   # rebinGrids = off [default]
colvars:   # writeFreeEnergyFile = on [default]
colvars:   # keepHills = off [default]
colvars:   # keepFreeEnergyFiles = off [default]
colvars:   # writeHillsTrajectory = off [default]
colvars:   # wellTempered = off [default]
colvars:   # biasTemperature = 800
colvars:   # ebMeta = off [default]
colvars: ----------------------------------------------------------------------
colvars: Collective variables biases initialized, 1 in total.
colvars: ----------------------------------------------------------------------
colvars: Collective variables module (re)initialized.
colvars: ----------------------------------------------------------------------
colvars: Re-initialized atom group for variable "d":0/0. 1 atoms: total mass = 1.008, total charge = 0.
colvars: Re-initialized atom group for variable "d":0/1. 1 atoms: total mass = 1.008, total charge = 4.672e-310.
colvars: The restart output state file will be "rest.colvars.state".
colvars: The final output state file will be "out.colvars.state".
Per MPI rank memory allocation (min/avg/max) = 3.124 | 3.146 | 3.16 Mbytes
   Step          Temp         c_mTemp         PotEng         KinEng         TotEng         Press     
         0   149.9571       298.15        -2247.8234      6.5516151     -2241.2718     -14783.352    
        50   130.59388      259.65136     -2246.9748      5.7056372     -2241.2691     -14750.29     
       100   136.00624      270.4124      -2247.2119      5.9421028     -2241.2698     -12293.107    
       150   139.24855      276.85889     -2247.3517      6.0837594     -2241.2679     -12463.858    
       200   139.16439      276.69154     -2247.3434      6.0800821     -2241.2633     -11075.272    
       250   143.05921      284.43537     -2247.5105      6.2502468     -2241.2602     -15547.657    
       300   149.27765      296.79909     -2247.7879      6.5219298     -2241.2659     -11860.766    
       350   142.11711      282.56225     -2247.4722      6.2090865     -2241.2631     -13287.112    
       400   129.52687      257.52989     -2246.9093      5.6590198     -2241.2503     -13085.54     
       450   142.19171      282.71058     -2247.4635      6.2123457     -2241.2512     -12825.463    
       500   144.61573      287.5301      -2247.5683      6.3182509     -2241.25       -11131.133    
       550   134.05437      266.53163     -2246.9736      5.8568259     -2241.1168     -13853.601    
       600   141.10236      280.54469     -2247.2413      6.1647521     -2241.0765     -15870.631    
       650   147.26652      292.80049     -2247.4244      6.4340636     -2240.9903     -14057.632    
       700   140.32321      278.99556     -2247.0439      6.130711      -2240.9132     -11776.719    
       750   143.18063      284.67677     -2247.1075      6.2555514     -2240.8519     -13394.808    
       800   160.65292      319.41581     -2247.7379      7.0189147     -2240.719      -15100.155    
       850   162.92479      323.93282     -2247.8293      7.1181725     -2240.7111     -12429.917    
       900   136.97729      272.34308     -2246.6657      5.9845281     -2240.6811     -13787.51     
       950   151.78626      301.78679     -2247.3112      6.6315307     -2240.6797     -13515.228    
      1000   146.8398       291.95207     -2247.0924      6.4154204     -2240.6769     -12061.151    
      1050   147.2009       292.67003     -2246.9681      6.4311969     -2240.5369     -13737.064    
      1100   146.26232      290.80391     -2246.972       6.3901905     -2240.5818     -14782.535    
      1150   148.81353      295.87631     -2246.8832      6.5016525     -2240.3816     -13184.188    
      1200   146.21255      290.70496     -2246.7109      6.3880161     -2240.3229     -11564.877    
      1250   164.56661      327.19713     -2247.5126      7.1899033     -2240.3227     -14842.784    
      1300   180.19623      358.2725      -2247.399       7.8727604     -2239.5262     -10337.646    
      1350   159.69333      317.50792     -2246.4913      6.9769904     -2239.5143     -10724.343    
      1400   149.65264      297.54467     -2245.3118      6.5383134     -2238.7735     -11459.181    
      1450   174.93934      347.82057     -2246.4173      7.6430872     -2238.7742     -13044.861    
      1500   173.5713       345.10058     -2246.3524      7.5833177     -2238.7691     -12280.302    
      1550   166.92775      331.89164     -2246.0589      7.2930614     -2238.7658     -12551.874    
      1600   166.55118      331.14293     -2246.0387      7.2766091     -2238.7621     -8524.1373    
      1650   161.08915      320.28314     -2245.7969      7.0379737     -2238.7589     -13871.741    
      1700   161.92181      321.93866     -2245.8302      7.0743524     -2238.7559     -14321.55     
      1750   163.39266      324.86305     -2245.9031      7.1386137     -2238.7644     -13214.321    
      1800   166.0413       330.12917     -2246.0149      7.2543326     -2238.7606     -11986.598    
      1850   166.9766       331.98878     -2246.0555      7.295196      -2238.7603     -13247.327    
      1900   163.98131      326.03343     -2245.9354      7.1643317     -2238.7711     -14039.015    
      1950   160.62703      319.36434     -2245.7995      7.0177837     -2238.7817     -14065.65     
      2000   160.25345      318.62157     -2245.7859      7.001462      -2238.7844     -14359.826    
      2050   168.39611      334.81109     -2246.1498      7.3572141     -2238.7926     -12853.782    
      2100   167.52026      333.0697      -2246.1151      7.3189483     -2238.7962     -14694.543    
      2150   160.27995      318.67425     -2245.8077      7.0026196     -2238.805      -15218.552    
      2200   169.02564      336.06274     -2246.1986      7.3847182     -2238.8139     -14051.118    
      2250   158.25682      314.65179     -2245.7303      6.9142291     -2238.8161     -13857.276    
      2300   152.11293      302.43629     -2245.4666      6.645803      -2238.8208     -13553.381    
      2350   143.80908      285.92629     -2245.1174      6.2830085     -2238.8344     -12833.552    
      2400   157.67346      313.49195     -2245.7316      6.8887424     -2238.8429     -13789.216    
      2450   168.57852      335.17376     -2245.5229      7.3651835     -2238.1577     -11889.288    
      2500   152.80968      303.8216      -2244.7621      6.6762441     -2238.0858     -12322.58     
      2550   195.8372       389.37044     -2245.8141      8.5561135     -2237.258      -12968.427    
      2600   182.05216      361.96253     -2245.2279      7.953846      -2237.2741     -15631.353    
      2650   176.83982      351.59917     -2245.0291      7.7261191     -2237.303      -13019.907    
      2700   170.80466      339.59986     -2244.7853      7.4624435     -2237.3228     -13170.59     
      2750   179.15809      356.20844     -2245.1774      7.8274042     -2237.35       -12372.709    
      2800   169.4405       336.88757     -2244.6366      7.4028432     -2237.2338     -13793.234    
      2850   149.09125      296.42849     -2243.845       6.5137862     -2237.3312     -10983.477    
      2900   173.87167      345.6978      -2245.066       7.5964411     -2237.4695     -12564.027    
      2950   166.19703      330.4388      -2244.2313      7.2611364     -2236.9702     -13337.223    
      3000   171.16586      340.31801     -2244.4895      7.4782245     -2237.0112     -10583.357    
      3050   183.50845      364.85798     -2245.0776      8.0174711     -2237.0601     -12422.931    
      3100   194.19479      386.10494     -2245.5945      8.4843567     -2237.1101     -14324.387    
      3150   176.89151      351.70194     -2244.8851      7.7283775     -2237.1568     -11394.669    
      3200   161.55569      321.21073     -2244.2719      7.0583568     -2237.2135     -15034.254    
      3250   171.80139      341.58158     -2244.7767      7.5059904     -2237.2707     -12620.912    
      3300   166.5205       331.08194     -2244.5927      7.2752689     -2237.3175     -13120.691    
      3350   168.66652      335.34873     -2244.7466      7.3690283     -2237.3776     -13085.342    
      3400   174.16404      346.2791      -2245.0377      7.6092147     -2237.4284     -13177.099    
      3450   186.23098      370.27102     -2245.6221      8.1364185     -2237.4857     -14528.178    
      3500   186.51144      370.82863     -2244.817       8.1486715     -2236.6684     -12175.957    
      3550   181.57741      361.01862     -2244.1606      7.9331042     -2236.2275     -14762.764    
      3600   159.26886      316.66398     -2243.2435      6.9584454     -2236.285      -12715.026    
      3650   169.18667      336.3829      -2243.7317      7.3917535     -2236.3399     -14437.488    
      3700   188.17593      374.13803     -2244.6302      8.2213932     -2236.4088     -15890.764    
      3750   196.21642      390.12442     -2243.8794      8.5726816     -2235.3067     -14616.87     
      3800   158.25285      314.6439      -2242.5516      6.9140558     -2235.6376     -12353.052    
      3850   187.80283      373.39622     -2242.8507      8.2050924     -2234.6456     -15965.889    
      3900   210.7532       419.02695     -2240.8252      9.2077923     -2231.6174     -9636.1986    
      3950   224.70815      446.77268     -2241.498       9.8174832     -2231.6805     -14584.435    
      4000   231.93393      461.13923     -2241.8938      10.133177     -2231.7607     -12088.593    
      4050   221.56707      440.52747     -2241.5144      9.6802497     -2231.8341     -14511.901    
      4100   240.71878      478.60558     -2242.4282      10.516986     -2231.9112     -12321.697    
      4150   230.27487      457.84063     -2242.0232      10.060693     -2231.9625     -11822.147    
      4200   235.38795      468.00663     -2242.3606      10.284083     -2232.0765     -14177.72     
      4250   228.91695      455.14075     -2242.1199      10.001365     -2232.1185     -15091.856    
      4300   232.35392      461.97427     -2242.3314      10.151526     -2232.1799     -8752.3378    
      4350   206.42853      410.42848     -2241.2699      9.0188477     -2232.251      -16039.634    
      4400   220.67486      438.75354     -2241.9624      9.6412689     -2232.3211     -12434.576    
      4450   239.89869      476.97505     -2242.8755      10.481157     -2232.3944     -12454.926    
      4500   232.86657      462.99353     -2242.6366      10.173924     -2232.4626     -12402.486    
      4550   225.90109      449.14453     -2242.3933      9.8696027     -2232.5237     -15497.313    
      4600   235.42214      468.07461     -2242.8889      10.285577     -2232.6033     -15147.781    
      4650   203.25056      404.10994     -2241.5423      8.8800025     -2232.6623     -12214.595    
      4700   207.11932      411.80195     -2241.7811      9.0490285     -2232.7321     -15261.568    
      4750   196.73951      391.16444     -2241.3842      8.5955353     -2232.7887     -12622.51     
      4800   220.45109      438.30864     -2240.5635      9.6314926     -2230.932      -15023.842    
      4850   204.89412      407.37772     -2239.9416      8.9518095     -2230.9898     -12205.399    
      4900   251.16246      499.37006     -2242.0586      10.97327      -2231.0854     -10798.863    
      4950   225.26657      447.88295     -2241.0036      9.8418807     -2231.1617     -14168.784    
      5000   236.50622      470.23001     -2241.577       10.33294      -2231.244      -12229.864    
      5050   212.04138      421.58815     -2240.5717      9.2640727     -2231.3076     -12454.625    
      5100   221.70737      440.80641     -2241.0826      9.686379      -2231.3962     -14869.039    
      5150   250.31132      497.6778      -2242.4228      10.936084     -2231.4867     -10472.662    
      5200   223.9538       445.27285     -2241.341       9.7845256     -2231.5565     -12826.411    
      5250   224.04617      445.4565      -2241.4332      9.7885612     -2231.6446     -11602.485    
      5300   236.08661      469.39572     -2242.0645      10.314607     -2231.7498     -7400.4707    
      5350   220.46984      438.34591     -2241.4715      9.6323115     -2231.8392     -11112.117    
      5400   237.93472      473.0702      -2242.3283      10.395351     -2231.9329     -11282.005    
      5450   233.25763      463.77104     -2242.2156      10.191009     -2232.0246     -9972.3868    
      5500   215.39083      428.24766     -2241.5353      9.4104102     -2232.1249     -13559.875    
      5550   211.85563      421.21885     -2241.4623      9.2559575     -2232.2063     -11113.984    
      5600   213.19586      423.88352     -2241.6169      9.3145118     -2232.3024     -12243.21     
      5650   203.55588      404.71698     -2241.2846      8.8933418     -2232.3912     -11472.143    
      5700   216.04923      429.5567      -2241.9081      9.4391754     -2232.4689     -9915.5137    
      5750   205.55266      408.68705     -2241.5285      8.9805811     -2232.5479     -10916.262    
      5800   214.08844      425.6582      -2241.9905      9.3535089     -2232.637      -11900.36     
      5850   220.55305      438.51135     -2242.3589      9.635947      -2232.723      -14596.888    
      5900   200.1662       397.9775      -2241.5535      8.745247      -2232.8083     -12759.259    
      5950   207.69506      412.94666     -2241.9711      9.0741826     -2232.8969     -13444.295    
      6000   204.707        407.00568     -2241.9296      8.9436341     -2232.9859     -13295.98     
      6050   216.87457      431.19768     -2242.5529      9.4752346     -2233.0777     -14609.293    
      6100   193.89864      385.51611     -2241.5903      8.4714176     -2233.1189     -12444.725    
      6150   197.65172      392.97812     -2241.8313      8.6353894     -2233.1959     -14124.202    
      6200   203.97228      405.54489     -2242.1958      8.9115344     -2233.2843     -13096.95     
      6250   201.12859      399.89097     -2242.1453      8.7872939     -2233.358      -13697.698    
      6300   192.13993      382.01939     -2241.8196      8.3945799     -2233.425      -12912.431    
      6350   204.31058      406.2175      -2242.4386      8.9263146     -2233.5123     -13356.399    
      6400   198.95183      395.56304     -2242.2801      8.6921911     -2233.5879     -17326.49     
      6450   188.9092       375.59594     -2241.9033      8.2534296     -2233.6499     -9318.0249    
      6500   194.32451      386.36286     -2242.2293      8.4900242     -2233.7393     -15778.779    
      6550   195.82635      389.34886     -2242.3715      8.5556393     -2233.8159     -15213.457    
      6600   188.08086      373.949       -2242.1089      8.2172393     -2233.8917     -10984.646    
      6650   198.63355      394.93024     -2242.657       8.6782858     -2233.9788     -15623.546    
      6700   199.69237      397.03542     -2242.7785      8.7245455     -2234.0539     -13226.448    
      6750   194.1942       386.10376     -2242.6156      8.4843307     -2234.1313     -11434.882    
      6800   208.90059      415.34352     -2243.3258      9.1268518     -2234.199      -12320.686    
      6850   200.89877      399.43403     -2243.056       8.777253      -2234.2788     -13127.579    
      6900   194.39488      386.50276     -2242.8471      8.4930984     -2234.354      -11563.776    
      6950   214.20514      425.89022     -2243.7991      9.3586074     -2234.4404     -11425.93     
      7000   211.55088      420.61293     -2243.7727      9.242643      -2234.53       -10934.36     
      7050   200.4198       398.48171     -2243.3637      8.7563267     -2234.6074     -15624.285    
      7100   192.7616       383.25541     -2243.107       8.4217404     -2234.6853     -12210.862    
      7150   178.87142      355.63848     -2242.5776      7.8148798     -2234.7627     -11305.363    
      7200   205.95716      409.4913      -2243.8406      8.9982539     -2234.8423     -13753.403    
      7250   196.19286      390.07756     -2243.4892      8.571652      -2234.9175     -15233.699    
      7300   194.80523      387.31864     -2243.5066      8.5110268     -2234.9956     -9719.0006    
      7350   201.66955      400.96652     -2243.8852      8.8109283     -2235.0743     -13761.395    
      7400   205.82615      409.23082     -2244.1398      8.99253       -2235.1473     -14257.706    
      7450   192.88156      383.49392     -2243.6594      8.4269815     -2235.2324     -7171.4371    
      7500   197.66836      393.01121     -2243.9332      8.6361166     -2235.2971     -11228.355    
      7550   199.75601      397.16196     -2244.1113      8.7273261     -2235.384      -12529.595    
      7600   193.69876      385.11871     -2243.9276      8.4626851     -2235.4649     -10712.94     
      7650   195.85659      389.40899     -2244.1045      8.5569606     -2235.5475     -12307.08     
      7700   188.6073       374.99569     -2243.865       8.2402396     -2235.6247     -9809.4214    
      7750   175.3236       348.58456     -2243.3625      7.6598755     -2235.7027     -11438.246    
      7800   177.40088      352.7147      -2243.5134      7.750632      -2235.7628     -12234.153    
      7850   197.30641      392.29156     -2244.4647      8.620303      -2235.8444     -10017.232    
      7900   179.09436      356.08173     -2243.7333      7.82462       -2235.9087     -10799.611    
      7950   189.30458      376.38204     -2244.2643      8.2707035     -2235.9936     -12612.553    
      8000   183.64013      365.11978     -2244.0787      8.023224      -2236.0555     -12651.002    
      8050   178.78751      355.47164     -2243.9356      7.8112137     -2236.1243     -12031.681    
      8100   181.48754      360.83993     -2244.1319      7.9291778     -2236.2027     -11226.421    
      8150   171.03575      340.05931     -2243.7395      7.4725397     -2236.267      -10145.882    
      8200   188.2878       374.36045     -2244.5724      8.2262806     -2236.3461     -13371.594    
      8250   184.89004      367.60491     -2244.4903      8.0778328     -2236.4125     -14803.212    
      8300   176.94286      351.80403     -2244.2169      7.7306209     -2236.4862     -14355.59     
      8350   182.39743      362.64901     -2244.532       7.9689309     -2236.5631     -13051.58     
      8400   192.70653      383.14592     -2245.0506      8.4193345     -2236.6313     -11367.587    
      8450   183.41685      364.67586     -2244.7214      8.0134693     -2236.7079     -14228.261    
      8500   187.92785      373.64478     -2244.9859      8.2105543     -2236.7753     -10985.048    
      8550   178.55232      355.00403     -2244.6478      7.8009383     -2236.8469     -15590.817    
      8600   170.0156       338.03102     -2244.326       7.4279695     -2236.898      -14422.067    
      8650   168.34119      334.7019      -2244.3289      7.3548147     -2236.9741     -11209.923    
      8700   172.84785      343.6622      -2244.585       7.5517105     -2237.0333     -13455.817    
      8750   180.56994      359.01553     -2244.989       7.8890879     -2237.0999     -14134.735    
      8800   170.22114      338.43968     -2244.5952      7.4369496     -2237.1583     -13294.33     
      8850   178.54858      354.99659     -2245.0195      7.8007749     -2237.2187     -15680.611    
      8900   183.4276       364.69723     -2245.3042      8.0139389     -2237.2903     -14670.37     
      8950   184.77147      367.36916     -2245.4271      8.0726525     -2237.3545     -11639.503    
      9000   174.45057      346.84879     -2245.0331      7.6217331     -2237.4114     -13826.222    
      9050   171.56512      341.11182     -2244.9667      7.4956679     -2237.471      -13250.723    
      9100   173.79875      345.5528      -2245.1314      7.5932548     -2237.5382     -11461.197    
      9150   177.1631       352.24192     -2245.3355      7.7402431     -2237.5952     -12035.613    
      9200   182.77297      363.39566     -2245.6471      7.9853379     -2237.6618     -11522.519    
      9250   172.7991       343.56526     -2245.2743      7.5495802     -2237.7248     -12873.183    
      9300   181.04706      359.96415     -2245.7004      7.909933      -2237.7905     -11376.005    
      9350   190.61913      378.99569     -2246.1715      8.3281364     -2237.8433     -13861.275    
      9400   172.47305      342.917       -2245.4507      7.5353352     -2237.9153     -12516.699    
      9450   176.51723      350.95779     -2245.685       7.7120254     -2237.973      -11597.878    
      9500   172.63188      343.23279     -2245.5761      7.5422745     -2238.0339     -11753.594    
      9550   168.00154      334.02659     -2245.4338      7.3399752     -2238.0939     -10923.173    
      9600   173.37161      344.70355     -2245.7259      7.5745932     -2238.1513     -12465.313    
      9650   162.57598      323.23931     -2245.3143      7.1029332     -2238.2114     -14961.78     
      9700   171.95588      341.88875     -2245.786       7.5127402     -2238.2733     -11569.855    
      9750   164.28318      326.63362     -2245.5099      7.1775205     -2238.3324     -11512.554    
      9800   173.22301      344.4081      -2245.964       7.568101      -2238.3959     -9723.4374    
      9850   176.62471      351.17149     -2246.1709      7.7167211     -2238.4542     -11768.129    
      9900   170.59986      339.19267     -2245.9601      7.4534959     -2238.5066     -12604.029    
      9950   169.36612      336.73969     -2245.9615      7.3995937     -2238.5619     -15636.041    
     10000   169.43034      336.86738     -2246.0233      7.4023995     -2238.6209     -10634.532    
     10050   149.89068      298.01795     -2245.2236      6.5487133     -2238.6749     -10749.815    
     10100   161.32254      320.74717     -2245.7745      7.0481705     -2238.7264     -11084.734    
     10150   151.70274      301.62073     -2245.405       6.6278818     -2238.7771     -13658.202    
     10200   165.87528      329.79909     -2246.0811      7.2470793     -2238.8341     -12105.69     
     10250   155.02773      308.2316      -2245.6521      6.7731503     -2238.879      -14418.26     
     10300   156.39731      310.95465     -2245.7628      6.8329872     -2238.9298     -12467.335    
     10350   165.44142      328.93647     -2246.2073      7.2281239     -2238.9792     -13225.626    
     10400   158.44553      315.02699     -2245.947       6.9224738     -2239.0246     -10734.587    
     10450   168.52524      335.06783     -2246.4408      7.3628557     -2239.078      -15497.736    
     10500   158.36817      314.87319     -2246.0414      6.9190943     -2239.1223     -14906.586    
     10550   153.55432      305.30211     -2245.87        6.7087772     -2239.1612     -13230.429    
     10600   152.21868      302.64656     -2245.8565      6.6504234     -2239.2061     -14880.572    
     10650   150.02611      298.28721     -2245.8085      6.5546302     -2239.2539     -14146.194    
     10700   155.92638      310.01833     -2246.1065      6.8124124     -2239.2941     -11875.872    
     10750   161.25756      320.61797     -2246.3857      7.0453313     -2239.3404     -12437.483    
     10800   178.29299      354.48842     -2247.1782      7.7896083     -2239.3886     -13212.235    
     10850   163.98958      326.04987     -2246.5908      7.164693      -2239.4261     -14755.789    
     10900   163.7461       325.56578     -2246.6265      7.1540557     -2239.4725     -11789.925    
     10950   155.52481      309.21991     -2246.3075      6.7948678     -2239.5126     -12810.49     
     11000   152.6981       303.59975     -2246.2298      6.6713691     -2239.5584     -13475.639    
     11050   162.53564      323.15909     -2246.7029      7.1011705     -2239.6017     -14795.338    
     11100   160.77933      319.66715     -2246.67        7.0244377     -2239.6456     -12352.158    
     11150   159.08189      316.29222     -2246.6434      6.9502763     -2239.6931     -13129.814    
     11200   153.64258      305.47759     -2246.439       6.7126333     -2239.7264     -14537.826    
     11250   166.36252      330.76783     -2247.042       7.2683667     -2239.7737     -16287.762    
     11300   169.12472      336.25974     -2247.2098      7.389047      -2239.8208     -13561.624    
     11350   161.77911      321.65494     -2246.9351      7.0681179     -2239.8669     -16372.274    
     11400   170.31714      338.63055     -2247.3499      7.4411437     -2239.9088     -15310.404    
     11450   161.27026      320.64323     -2246.9965      7.0458864     -2239.9506     -11496.551    
     11500   172.64183      343.25258     -2247.5382      7.5427094     -2239.9955     -12886.484    
     11550   152.39573      302.99857     -2246.6934      6.6581586     -2240.0353     -12362.663    
     11600   156.97559      312.1044      -2246.9403      6.8582522     -2240.082      -12289.566    
     11650   147.79402      293.84929     -2246.5685      6.4571104     -2240.1114     -8553.9511    
     11700   161.68452      321.46687     -2247.2241      7.0639851     -2240.1601     -11983.696    
     11750   161.70612      321.50982     -2247.2671      7.064929      -2240.2022     -13479.161    
     11800   163.64131      325.35743     -2247.3879      7.1494772     -2240.2384     -11288.374    
     11850   158.6539       315.44128     -2247.211       6.9315775     -2240.2794     -10258.059    
     11900   152.58727      303.37939     -2246.9865      6.6665269     -2240.3199     -11884.412    
     11950   160.85755      319.82265     -2247.3919      7.0278549     -2240.364      -10537.854    
     12000   170.74517      339.48158     -2247.874       7.4598445     -2240.4141     -10231.859    
     12050   142.74245      283.80558     -2246.6785      6.2364075     -2240.4421     -12452.417    
     12100   163.32287      324.7243      -2247.6283      7.1355647     -2240.4928     -12440.261    
     12150   156.11559      310.39452     -2247.3558      6.8206789     -2240.5351     -11020.088    
     12200   143.20119      284.71766     -2246.8262      6.2564498     -2240.5698     -10539.12     
     12250   147.53865      293.34154     -2247.0566      6.445953      -2240.6107     -11323.028    
     12300   159.66404      317.44967     -2247.6257      6.9757104     -2240.65       -13303.13     
     12350   154.12165      306.43011     -2247.4243      6.733564      -2240.6907     -9887.7577    
     12400   156.24571      310.65323     -2247.5581      6.8263639     -2240.7317     -13324.557    
     12450   161.47155      321.04343     -2247.8211      7.0546804     -2240.7664     -13040.955    
     12500   153.77365      305.73821     -2247.5279      6.71836       -2240.8095     -12968.6      
     12550   143.50994      285.33152     -2247.1115      6.2699389     -2240.8416     -13940.787    
     12600   149.23518      296.71466     -2247.3994      6.5200745     -2240.8793     -13878.04     
     12650   150.9102       300.04498     -2247.5088      6.5932558     -2240.9156     -12725.982    
     12700   162.55429      323.19619     -2248.0565      7.1019856     -2240.9545     -14460.85     
     12750   153.43988      305.07458     -2247.6934      6.7037774     -2240.9897     -9355.0303    
     12800   143.1445       284.60494     -2247.2801      6.2539729     -2241.0261     -12005.652    
     12850   147.88684      294.03383     -2247.5205      6.4611654     -2241.0593     -11579.442    
     12900   147.42133      293.10829     -2247.5373      6.4408274     -2241.0965     -12208.55     
     12950   144.10886      286.52232     -2247.4252      6.2961059     -2241.1291     -13583.565    
     13000   140.03794      278.42837     -2247.2772      6.1182475     -2241.159      -13359.696    
     13050   147.75876      293.77918     -2247.6527      6.4555697     -2241.1971     -13094.763    
     13100   151.28851      300.79716     -2247.8404      6.6097843     -2241.2306     -14367.604    
     13150   147.41605      293.09779     -2247.7034      6.4405967     -2241.2628     -12882.81     
     13200   157.5726       313.29141     -2248.1864      6.8843358     -2241.302      -13892.909    
     13250   146.04755      290.37689     -2247.7052      6.3808071     -2241.3243     -14613.496    
     13300   142.85779      284.03489     -2247.6044      6.2414466     -2241.3629     -12831.59     
     13350   153.58268      305.35851     -2248.1038      6.7100166     -2241.3938     -10076.807    
     13400   143.0007       284.31904     -2247.667       6.2476904     -2241.4193     -16038.842    
     13450   151.02425      300.27175     -2248.0544      6.598239      -2241.4562     -10182.825    
     13500   158.67267      315.4786      -2248.4207      6.9323976     -2241.4883     -13175.989    
     13550   144.24872      286.8004      -2247.8213      6.3022165     -2241.5191     -15323.157    
     13600   150.97146      300.16678     -2248.1414      6.5959323     -2241.5455     -12591.398    
     13650   144.17054      286.64496     -2247.8789      6.2988007     -2241.5801     -14604.574    
     13700   138.23938      274.85241     -2247.6458      6.0396687     -2241.6061     -13840.514    
     13750   153.9598       306.10831     -2248.3643      6.7264929     -2241.6378     -13139.137    
     13800   150.84882      299.92296     -2248.2524      6.5905744     -2241.6619     -10646.88     
     13850   149.67799      297.59506     -2248.234       6.5394207     -2241.6946     -14610.711    
     13900   132.47894      263.39931     -2247.4992      5.7879956     -2241.7112     -16551.249    
     13950   148.29893      294.85316     -2248.2256      6.4791696     -2241.7465     -11708.198    
     14000   158.67853      315.49025     -2248.7071      6.9326537     -2241.7745     -10951.214    
     14050   143.16599      284.64767     -2248.0523      6.2549119     -2241.7974     -11361.738    
     14100   148.02159      294.30175     -2248.2943      6.4670528     -2241.8273     -13328.895    
     14150   153.50796      305.20995     -2248.56        6.7067521     -2241.8532     -13081.087    
     14200   154.0238       306.23556     -2248.6113      6.7292891     -2241.882      -11722.486    
     14250   144.98121      288.25676     -2248.2424      6.3342188     -2241.9082     -13084.882    
     14300   157.23323      312.61665     -2248.8101      6.8695085     -2241.9406     -13870.471    
     14350   146.76198      291.79735     -2248.3712      6.4120206     -2241.9592     -12416.854    
     14400   145.41774      289.12468     -2248.3405      6.3532907     -2241.9872     -13856.446    
     14450   149.18558      296.61604     -2248.5334      6.5179075     -2242.0155     -14456.139    
     14500   133.45224      265.33446     -2247.8666      5.8305189     -2242.0361     -10328.73     
     14550   138.97628      276.31754     -2248.1367      6.0718636     -2242.0648     -13322.074    
     14600   147.98218      294.22339     -2248.5553      6.4653308     -2242.09       -11954.687    
     14650   135.44755      269.30159     -2248.0295      5.9176937     -2242.1118     -9959.5963    
     14700   145.63855      289.56371     -2248.4951      6.3629381     -2242.1322     -16263.848    
     14750   147.62279      293.50883     -2248.6119      6.4496291     -2242.1622     -12128.325    
     14800   149.60087      297.44173     -2248.7221      6.5360514     -2242.186      -11780.864    
     14850   151.22646      300.67379     -2248.8158      6.6070733     -2242.2087     -11362.532    
     14900   142.7088       283.73868     -2248.4628      6.2349375     -2242.2279     -13617.549    
     14950   147.42736      293.12027     -2248.6922      6.4410907     -2242.2511     -12260.232    
     15000   147.6492       293.56135     -2248.7217      6.4507831     -2242.271      -11120.008    
     15050   148.53662      295.32576     -2248.7768      6.4895546     -2242.2873     -14190.292    
     15100   142.08961      282.50758     -2248.5087      6.207885      -2242.3008     -13913.33     
     15150   153.80919      305.80886     -2249.0486      6.7199126     -2242.3287     -11005.732    
     15200   148.23144      294.71899     -2248.8186      6.4762213     -2242.3424     -13227.493    
     15250   150.60656      299.44127     -2248.9398      6.5799898     -2242.3599     -14572.527    
     15300   138.18938      274.753       -2248.4212      6.0374841     -2242.3838     -12731.91     
     15350   142.21778      282.76241     -2248.6112      6.2134847     -2242.3977     -13539.294    
     15400   136.21768      270.83281     -2248.3671      5.9513409     -2242.4158     -15092.734    
     15450   138.14467      274.66411     -2248.4698      6.0355309     -2242.4342     -12446.958    
     15500   149.70725      297.65324     -2248.992       6.5406992     -2242.4513     -13758.23     
     15550   139.53253      277.42351     -2248.5646      6.0961665     -2242.4684     -15415.756    
     15600   143.18891      284.69325     -2248.7434      6.2559135     -2242.4875     -13288.053    
     15650   139.30092      276.96301     -2248.59        6.0860473     -2242.504      -13093.072    
     15700   135.97535      270.35099     -2248.4574      5.9407535     -2242.5167     -14444.363    
     15750   143.70908      285.72747     -2248.8138      6.2786396     -2242.5352     -12922.946    
     15800   139.93451      278.22272     -2248.6593      6.1137286     -2242.5456     -16050.487    
     15850   143.82285      285.95366     -2248.8493      6.28361       -2242.5657     -10438.357    
     15900   146.80125      291.87543     -2248.9954      6.4137362     -2242.5816     -13914.031    
     15950   143.33216      284.97807     -2248.8528      6.262172      -2242.5906     -14532.854    
     16000   141.3752       281.08715     -2248.7735      6.1766723     -2242.5969     -11978.072    
     16050   132.29508      263.03375     -2248.3839      5.7799628     -2242.6039     -13075.239    
     16100   149.63991      297.51934     -2249.1473      6.5377569     -2242.6095     -13714.55     
     16150   147.08184      292.4333      -2249.0543      6.425995      -2242.6283     -11900.091    
     16200   125.30763      249.14105     -2248.103       5.4746814     -2242.6283     -12915.62     
     16250   142.88463      284.08827     -2248.8839      6.2426195     -2242.6413     -13079.611    
     16300   143.66606      285.64193     -2248.9289      6.2767599     -2242.6522     -9907.8071    
     16350   139.70505      277.7665      -2248.7616      6.1037035     -2242.6579     -13109.318    
     16400   162.21224      322.5161      -2249.7558      7.0870413     -2242.6687     -10583.096    
     16450   131.93208      262.31202     -2248.4324      5.7641032     -2242.6683     -12268.68     
     16500   127.00608      252.51797     -2248.2204      5.5488866     -2242.6715     -12533.546    
     16550   144.87862      288.05279     -2249.0126      6.3297367     -2242.6828     -10911.685    
     16600   141.01247      280.36597     -2248.8509      6.1608247     -2242.6901     -10988.058    
     16650   143.90273      286.11248     -2248.9807      6.2871        -2242.6936     -12094.573    
     16700   131.61505      261.68169     -2248.4517      5.7502523     -2242.7014     -12574.221    
     16750   145.8205       289.92546     -2249.0794      6.3708872     -2242.7085     -11883.213    
     16800   136.75168      271.89452     -2248.6834      5.9746712     -2242.7087     -11243.156    
     16850   134.8878       268.18868     -2248.6075      5.8932383     -2242.7142     -11350.035    
     16900   129.98981      258.45034     -2248.3959      5.6792457     -2242.7166     -14170.901    
     16950   136.19993      270.79751     -2248.6783      5.9505654     -2242.7277     -14128.442    
     17000   121.05842      240.69262     -2248.012       5.2890336     -2242.723      -12017.495    
     17050   141.86233      282.05569     -2248.9353      6.1979552     -2242.7373     -14398.314    
     17100   141.55314      281.44095     -2248.9213      6.1844467     -2242.7368     -13740.674    
     17150   140.52087      279.38855     -2248.8678      6.1393467     -2242.7285     -14669.611    
     17200   142.36714      283.05938     -2248.9517      6.2200103     -2242.7317     -14468.824    
     17250   124.82764      248.18673     -2248.1793      5.4537109     -2242.7256     -11407.01     
     17300   134.44883      267.3159      -2248.5935      5.8740596     -2242.7194     -12183.981    
     17350   138.89901      276.16392     -2248.7909      6.068488      -2242.7225     -15964.57     
     17400   147.21678      292.7016      -2249.1521      6.4318906     -2242.7202     -10572.051    
     17450   136.52667      271.44714     -2248.681       5.9648404     -2242.7161     -14036.869    
     17500   144.54747      287.39439     -2249.0276      6.3152688     -2242.7123     -14369.526    
     17550   133.60548      265.63914     -2248.5429      5.8372141     -2242.7057     -14322.565    
     17600   127.45268      253.40591     -2248.267       5.5683984     -2242.6986     -13519.601    
     17650   142.66118      283.64399     -2248.926       6.2328567     -2242.6931     -12104.237    
     17700   144.44645      287.19352     -2248.9976      6.310855      -2242.6868     -14788.195    
     17750   135.54288      269.49113     -2248.5963      5.9218587     -2242.6745     -15419.957    
     17800   137.8538       274.08579     -2248.6883      6.0228228     -2242.6655     -12714.784    
     17850   147.81221      293.88545     -2249.1247      6.4579049     -2242.6668     -11541.746    
     17900   147.74336      293.74856     -2249.1121      6.4548969     -2242.6572     -11434.324    
     17950   142.95727      284.23268     -2248.8914      6.2457929     -2242.6456     -11566.54     
     18000   149.15332      296.5519      -2249.1554      6.5164982     -2242.6389     -12405.994    
     18050   141.44352      281.22299     -2248.8083      6.1796572     -2242.6286     -15481.501    
     18100   144.93723      288.16932     -2248.9536      6.3322975     -2242.6213     -14963.767    
     18150   130.81999      260.10092     -2248.3227      5.715516      -2242.6071     -10785.807    
     18200   125.38754      249.29993     -2248.0809      5.4781728     -2242.6028     -13917.016    
     18250   137.3723       273.12846     -2248.5924      6.0017862     -2242.5907     -14361.252    
     18300   135.28746      268.9833      -2248.4827      5.9106995     -2242.572      -13165.676    
     18350   140.36948      279.08756     -2248.7017      6.1327327     -2242.569      -14436.118    
     18400   138.94297      276.25132     -2248.6196      6.0704086     -2242.5492     -13069.795    
     18450   154.43852      307.06011     -2249.2939      6.7474078     -2242.5465     -13156.465    
     18500   147.91463      294.0891      -2248.9922      6.4623798     -2242.5298     -12981.217    
     18550   148.14524      294.5476      -2248.9859      6.472455      -2242.5134     -10881.9      
     18600   143.87595      286.05924     -2248.783       6.28593       -2242.4971     -11327.82     
     18650   134.77603      267.96647     -2248.3702      5.8883554     -2242.4818     -13305.006    
     18700   140.64977      279.64483     -2248.6082      6.1449784     -2242.4632     -13224.277    
     18750   125.40787      249.34035     -2247.9287      5.4790608     -2242.4497     -13604.978    
     18800   150.25728      298.74682     -2249.0091      6.5647298     -2242.4444     -8292.0323    
     18850   139.02083      276.40611     -2248.493       6.07381       -2242.4192     -10273.831    
     18900   153.49043      305.1751      -2249.1165      6.7059862     -2242.4105     -13482.679    
     18950   147.37805      293.02224     -2248.8282      6.4389365     -2242.3892     -13269.681    
     19000   148.76738      295.78456     -2248.8719      6.4996363     -2242.3722     -12045.529    
     19050   150.13015      298.49406     -2248.9167      6.5591755     -2242.3575     -13616.67     
     19100   148.23195      294.72        -2248.8089      6.4762434     -2242.3326     -14514.173    
     19150   148.9325       296.11285     -2248.8237      6.5068502     -2242.3168     -13120.4      
     19200   148.72197      295.69428     -2248.7983      6.4976525     -2242.3007     -14515.242    
     19250   142.82613      283.97194     -2248.5292      6.2400633     -2242.2892     -12864.323    
     19300   142.26383      282.85397     -2248.4792      6.2154966     -2242.2637     -13547.359    
     19350   145.35724      289.00439     -2248.6007      6.3506475     -2242.25       -12104.789    
     19400   133.50963      265.44857     -2248.0595      5.8330265     -2242.2265     -13908.669    
     19450   137.39875      273.18104     -2248.2138      6.0029416     -2242.2108     -12020.647    
     19500   140.07403      278.50013     -2248.3137      6.1198243     -2242.1939     -12626.967    
     19550   141.69303      281.71909     -2248.3623      6.1905585     -2242.1717     -14184.85     
     19600   142.73958      283.79987     -2248.388       6.2362821     -2242.1518     -14456.551    
     19650   138.38777      275.14744     -2248.179       6.0461517     -2242.1329     -10219.221    
     19700   136.80601      272.00254     -2248.0792      5.9770448     -2242.1021     -10273.129    
     19750   140.9582       280.25807     -2248.248       6.1584538     -2242.0895     -14553.936    
     19800   151.49044      301.19864     -2248.6817      6.6186065     -2242.0631     -12044.94     
     19850   145.85395      289.99197     -2248.4125      6.3723488     -2242.0401     -13189.911    
     19900   145.70265      289.69114     -2248.386       6.3657383     -2242.0202     -13548.441    
     19950   145.19038      288.67263     -2248.3423      6.3433572     -2241.999      -11998.009    
     20000   159.53993      317.20293     -2248.956       6.9702884     -2241.9857     -11266.216    
     20050   150.54202      299.31295     -2248.5404      6.5771701     -2241.9633     -10913.804    
     20100   151.58204      301.38076     -2248.5662      6.6226085     -2241.9436     -14037.764    
     20150   133.31301      265.05763     -2247.736       5.8244359     -2241.9116     -11767.45     
     20200   136.0586       270.5165      -2247.8353      5.9443904     -2241.8909     -11558.578    
     20250   141.95446      282.23887     -2248.0782      6.2019802     -2241.8762     -16521.677    
     20300   159.19468      316.51649     -2248.8103      6.9552044     -2241.8551     -12030.85     
     20350   144.40448      287.11008     -2248.1392      6.3090213     -2241.8302     -13239.993    
     20400   161.03922      320.18386     -2248.8413      7.035792      -2241.8055     -13980.461    
     20450   147.66456      293.59188     -2248.2327      6.451454      -2241.7812     -12251.906    
     20500   155.97019      310.10545     -2248.5733      6.8143267     -2241.759      -13620.194    
     20550   160.17545      318.46649     -2248.7326      6.9980542     -2241.7346     -11779.772    
     20600   155.98705      310.13896     -2248.5275      6.8150631     -2241.7125     -15261.916    
     20650   163.01698      324.11611     -2248.8202      7.1222003     -2241.698      -12521.082    
     20700   146.58843      291.4523      -2248.0746      6.4044383     -2241.6701     -12077.091    
     20750   151.21823      300.65742     -2248.2591      6.6067137     -2241.6524     -11597.188    
     20800   150.36041      298.95187     -2248.2044      6.5692355     -2241.6352     -12890.218    
     20850   164.48983      327.04448     -2248.8081      7.1865488     -2241.6216     -11243.326    
     20900   145.07399      288.44123     -2247.9334      6.3382724     -2241.5951     -16837.455    
     20950   158.43782      315.01167     -2248.5031      6.9221371     -2241.581      -12591.892    
     21000   144.78317      287.86301     -2247.8793      6.3255665     -2241.5538     -14262.889    
     21050   150.96672      300.15737     -2248.1338      6.5957254     -2241.538      -12842.773    
     21100   142.43135      283.18704     -2247.738       6.2228157     -2241.5152     -12917.351    
     21150   150.70154      299.63011     -2248.0769      6.5841395     -2241.4928     -13939.456    
     21200   160.23188      318.57867     -2248.4763      7.0005193     -2241.4758     -14098.796    
     21250   144.85928      288.01433     -2247.7843      6.3288916     -2241.4554     -10335.997    
     21300   151.0645       300.35177     -2248.0422      6.5999973     -2241.4422     -13429.993    
     21350   155.78931      309.74581     -2248.2341      6.8064239     -2241.4277     -12359.459    
     21400   159.21244      316.5518      -2248.3568      6.9559803     -2241.4008     -11829.174    
     21450   156.22262      310.60733     -2248.2098      6.8253552     -2241.3844     -11099.527    
     21500   159.29658      316.71909     -2248.333       6.9596564     -2241.3734     -8773.7452    
     21550   148.34233      294.93945     -2247.833       6.4810657     -2241.352      -12467.777    
     21600   159.92178      317.96212     -2248.3252      6.986971      -2241.3382     -11227.326    
     21650   167.06985      332.17418     -2248.6218      7.2992699     -2241.3225     -12418.619    
     21700   143.9031       286.11323     -2247.5829      6.2871164     -2241.2958     -14155.717    
     21750   157.84873      313.84041     -2248.1876      6.8963997     -2241.2912     -12211.663    
     21800   152.28833      302.78503     -2247.9262      6.6534663     -2241.2727     -12404.707    
     21850   156.18294      310.52843     -2248.079       6.8236214     -2241.2554     -10825.095    
     21900   154.60174      307.38464     -2247.9931      6.7545391     -2241.2386     -11849.48     
     21950   152.7201       303.64349     -2247.8977      6.6723303     -2241.2254     -13003.74     
     22000   154.153        306.49244     -2247.9441      6.7349338     -2241.2091     -9744.6667    
     22050   157.39723      312.94273     -2248.065       6.8766738     -2241.1883     -12056.551    
     22100   162.29194      322.67457     -2248.2607      7.0905234     -2241.1702     -13629.835    
     22150   155.10401      308.38327     -2247.9317      6.7764833     -2241.1552     -13910.091    
     22200   151.80134      301.81677     -2247.7735      6.6321896     -2241.1413     -11490.855    
     22250   159.72495      317.57079     -2248.106       6.9783718     -2241.1276     -11964.746    
     22300   149.54965      297.3399      -2247.6473      6.5338137     -2241.1135     -10048.629    
     22350   150.94594      300.11605     -2247.7008      6.5948174     -2241.1059     -11310.349    
     22400   163.79632      325.66563     -2248.2547      7.1562497     -2241.0984     -11842.747    
     22450   166.40421      330.85072     -2248.3598      7.2701881     -2241.0896     -14465.154    
     22500   159.82116      317.76206     -2248.0594      6.982575      -2241.0768     -13599.469    
     22550   161.47021      321.04077     -2248.1199      7.054622      -2241.0653     -13856.239    
     22600   152.19509      302.59964     -2247.7098      6.6493925     -2241.0604     -12334.746    
     22650   147.07265      292.41503     -2247.4756      6.4255936     -2241.05       -15591.953    
     22700   141.51559      281.36628     -2247.2242      6.1828059     -2241.0414     -12365.763    
     22750   157.69975      313.54421     -2247.9282      6.8898909     -2241.0383     -12199.428    
     22800   146.34546      290.96922     -2247.4179      6.3938229     -2241.0241     -13652.196    
     22850   149.13331      296.51211     -2247.5407      6.5156236     -2241.0251     -15583.439    
     22900   144.45214      287.20485     -2247.3232      6.3111039     -2241.0121     -16368.003    
     22950   150.55983      299.34837     -2247.5786      6.5779484     -2241.0007     -12284.716    
     23000   154.06947      306.32636     -2247.7277      6.7312843     -2240.9964     -14597.359    
     23050   175.33823      348.61367     -2248.6483      7.660515      -2240.9878     -10183.99     
     23100   169.54392      337.0932      -2248.3901      7.4073618     -2240.9827     -12670.986    
     23150   158.16886      314.47691     -2247.8852      6.9103862     -2240.9748     -12406.813    
     23200   161.71751      321.53245     -2248.0314      7.0654263     -2240.966      -10649.983    
     23250   158.53713      315.20912     -2247.8878      6.926476      -2240.9614     -13998.812    
     23300   150.45064      299.13128     -2247.5306      6.5731779     -2240.9574     -12491.305    
     23350   149.41641      297.07498     -2247.4869      6.5279924     -2240.9589     -11604.627    
     23400   158.55889      315.25239     -2247.8804      6.9274268     -2240.953      -10489.419    
     23450   157.33909      312.82713     -2247.8253      6.8741337     -2240.9512     -12757.164    
     23500   164.54075      327.14574     -2248.1384      7.1887739     -2240.9497     -11023.709    
     23550   154.33572      306.85573     -2247.6897      6.7429166     -2240.9468     -13899        
     23600   158.56741      315.26933     -2247.8769      6.927799      -2240.9491     -10150.435    
     23650   155.55303      309.27603     -2247.7412      6.7961009     -2240.9451     -10596.757    
     23700   169.21413      336.4375      -2248.3412      7.3929531     -2240.9483     -13935.976    
     23750   163.78791      325.64891     -2248.0986      7.1558823     -2240.9427     -11006.746    
     23800   158.21742      314.57347     -2247.8574      6.912508      -2240.9449     -10945.548    
     23850   147.87545      294.01119     -2247.4098      6.4606678     -2240.9491     -14751.244    
     23900   146.82696      291.92654     -2247.3634      6.4148595     -2240.9486     -9570.3442    
     23950   154.05834      306.30423     -2247.6922      6.7307979     -2240.9614     -14000.695    
     24000   161.23098      320.56512     -2248.0099      7.0441699     -2240.9657     -11880.616    
     24050   152.05253      302.31622     -2247.605       6.6431644     -2240.9619     -12282.25     
     24100   158.10041      314.34081     -2247.882       6.9073955     -2240.9746     -13409.016    
     24150   144.30135      286.90503     -2247.2795      6.3045156     -2240.975      -10544.717    
     24200   158.8803       315.89143     -2247.9197      6.9414692     -2240.9782     -11608.953    
     24250   153.22322      304.64381     -2247.6719      6.6943115     -2240.9776     -15009.367    
     24300   165.84823      329.74531     -2248.2332      7.2458975     -2240.9873     -10581.309    
     24350   156.11119      310.38577     -2247.8049      6.8204866     -2240.9844     -12760.267    
     24400   147.5606       293.38519     -2247.4466      6.446912      -2240.9997     -10143.178    
     24450   165.1542       328.3654      -2248.2258      7.2155751     -2241.0102     -11289.142    
     24500   168.42413      334.8668      -2248.3661      7.3584384     -2241.0077     -14671.871    
     24550   152.14191      302.49391     -2247.6554      6.6470691     -2241.0083     -12559.631    
     24600   161.37848      320.85839     -2248.0795      7.0506143     -2241.0289     -11458.487    
     24650   146.7476       291.76876     -2247.4362      6.4113923     -2241.0248     -13814.974    
     24700   168.06428      334.15133     -2248.3899      7.3427163     -2241.0472     -10952.624    
     24750   157.62628      313.39813     -2247.9346      6.8866809     -2241.0479     -15862.944    
     24800   142.54052      283.40408     -2247.2854      6.227585      -2241.0578     -13771.963    
     24850   148.75347      295.75691     -2247.5753      6.4990287     -2241.0763     -13935.287    
     24900   154.75986      307.69902     -2247.8451      6.7614474     -2241.0837     -12381.994    
     24950   154.19555      306.57703     -2247.8379      6.7367926     -2241.1011     -13116.987    
     25000   147.89015      294.04041     -2247.5694      6.4613101     -2241.1081     -15614.251    
     25050   151.74917      301.71305     -2247.7505      6.6299104     -2241.1205     -11325.978    
     25100   153.18139      304.56065     -2247.8242      6.6924841     -2241.1317     -13904.64     
     25150   160.30242      318.71894     -2248.1435      7.0036015     -2241.1399     -12760.052    
     25200   166.58126      331.20274     -2248.4418      7.2779233     -2241.1639     -11089.632    
     25250   169.17294      336.35561     -2248.5601      7.3911538     -2241.169      -16077.025    
     25300   166.52164      331.0842      -2248.462       7.2753185     -2241.1867     -11627.169    
     25350   159.46226      317.04849     -2248.1757      6.9668947     -2241.2088     -13014.329    
     25400   166.47801      330.99745     -2248.4933      7.2734122     -2241.2199     -11138.49     
     25450   154.90308      307.98377     -2247.9937      6.7677045     -2241.226      -6931.6749    
     25500   149.0991       296.44409     -2247.7598      6.514129      -2241.2456     -11402.543    
     25550   162.25548      322.60207     -2248.3458      7.0889303     -2241.2569     -12643.416    
     25600   158.49556      315.12646     -2248.2015      6.9246597     -2241.2769     -14628.071    
     25650   160.98495      320.07595     -2248.3331      7.0334209     -2241.2997     -10284.564    
     25700   143.67728      285.66424     -2247.5852      6.2772501     -2241.3079     -9480.8215    
     25750   147.35642      292.97924     -2247.7642      6.4379916     -2241.3262     -11307.64     
     25800   153.3639       304.92352     -2248.0471      6.700458      -2241.3467     -10344.715    
     25850   151.15158      300.5249      -2247.9671      6.6038017     -2241.3633     -11637.569    
     25900   170.61685      339.22645     -2248.8422      7.4542382     -2241.3879     -10990.243    
     25950   165.3583       328.77121     -2248.6259      7.2244925     -2241.4014     -14007.248    
     26000   157.03234      312.21724     -2248.2885      6.8607317     -2241.4278     -11407.35     
     26050   142.01299      282.35523     -2247.6502      6.2045373     -2241.4456     -11159.544    
     26100   142.23586      282.79835     -2247.6795      6.2142744     -2241.4652     -12613.175    
     26150   154.07539      306.33813     -2248.2128      6.731543      -2241.4812     -12323.351    
     26200   154.36791      306.91974     -2248.2468      6.7443232     -2241.5025     -11522.892    
     26250   143.52613      285.36371     -2247.7909      6.2706463     -2241.5203     -12049.194    
     26300   145.54259      289.37292     -2247.9042      6.3587456     -2241.5455     -12263.418    
     26350   167.24421      332.52085     -2248.8786      7.3068878     -2241.5717     -12668.093    
     26400   152.12282      302.45596     -2248.234       6.6462351     -2241.5878     -11589.912    
     26450   144.85005      287.99598     -2247.9347      6.3284884     -2241.6062     -13063.128    
     26500   157.63318      313.41185     -2248.5201      6.8869825     -2241.6331     -13616.197    
     26550   144.24612      286.79523     -2247.9491      6.3021029     -2241.647      -12018.307    
     26600   143.86697      286.04139     -2247.9591      6.2855379     -2241.6736     -12867.634    
     26650   151.26273      300.7459      -2248.3014      6.608658      -2241.6928     -12263.602    
     26700   156.31537      310.79173     -2248.5447      6.8294074     -2241.7153     -13845.027    
     26750   154.79183      307.76258     -2248.5027      6.7628441     -2241.7398     -11994.118    
     26800   144.12089      286.54624     -2248.0524      6.2966315     -2241.7558     -13604.396    
     26850   141.56793      281.47035     -2247.9678      6.1850927     -2241.7828     -15230.182    
     26900   151.33864      300.89682     -2248.4163      6.6119744     -2241.8043     -13584.668    
     26950   146.99918      292.26895     -2248.2462      6.4223835     -2241.8238     -14041.826    
     27000   147.75567      293.77304     -2248.2977      6.4554349     -2241.8423     -13265.881    
     27050   144.42506      287.15099     -2248.1737      6.3099204     -2241.8638     -11781.489    
     27100   142.55761      283.43808     -2248.1145      6.2283321     -2241.8862     -10159.33     
     27150   146.66446      291.60345     -2248.3069      6.4077597     -2241.8991     -11132.373    
     27200   154.28584      306.75656     -2248.666       6.7407375     -2241.9252     -13180.567    
     27250   137.94808      274.27325     -2247.9683      6.026942      -2241.9413     -12714.484    
     27300   164.40087      326.8676      -2249.1399      7.1826622     -2241.9573     -12756.954    
     27350   145.48374      289.2559      -2248.3343      6.3561741     -2241.9781     -13448.973    
     27400   145.26819      288.82733     -2248.3321      6.3467567     -2241.9853     -11812.96     
     27450   145.61148      289.50988     -2248.3692      6.3617552     -2242.0074     -13314.148    
     27500   139.21045      276.78313     -2248.1035      6.0820946     -2242.0214     -14335.531    
     27550   131.36278      261.18011     -2247.7732      5.7392304     -2242.034      -10522.051    
     27600   149.68496      297.60893     -2248.591       6.5397255     -2242.0513     -14425.791    
     27650   156.63013      311.41755     -2248.9138      6.8431591     -2242.0706     -13326.679    
     27700   146.64009      291.555       -2248.4932      6.406695      -2242.0865     -12833.351    
     27750   144.50642      287.31277     -2248.418       6.3134754     -2242.1045     -12476.915    
     27800   135.35797      269.12349     -2248.0255      5.9137801     -2242.1117     -14785.485    
     27850   141.06054      280.46154     -2248.2894      6.162925      -2242.1264     -14821.333    
     27900   153.10172      304.40225     -2248.8364      6.6890035     -2242.1474     -13308.863    
     27950   143.67582      285.66134     -2248.4286      6.2771864     -2242.1514     -11010.504    
     28000   144.45495      287.21043     -2248.4796      6.3112266     -2242.1684     -15113.717    
     28050   155.83101      309.82872     -2248.9915      6.8082459     -2242.1833     -11218.531    
     28100   151.30836      300.83662     -2248.8087      6.6106515     -2242.1981     -12871.004    
     28150   138.19522      274.76461     -2248.254       6.0377392     -2242.2163     -12353.525    
     28200   139.94491      278.24341     -2248.3422      6.1141832     -2242.228      -13740.492    
     28250   149.95967      298.15511     -2248.7977      6.5517273     -2242.246      -9905.6342    
     28300   126.57074      251.65241     -2247.7796      5.5298666     -2242.2498     -12175.346    
     28350   153.76726      305.72548     -2248.9894      6.7180805     -2242.2713     -12834.821    
     28400   135.00274      268.41722     -2248.1735      5.8982602     -2242.2753     -12782.259    
     28450   142.09096      282.51027     -2248.4918      6.207944      -2242.2839     -14754.239    
     28500   137.56591      273.51339     -2248.3094      6.0102447     -2242.2991     -13373.848    
     28550   139.1036       276.57069     -2248.3799      6.0774265     -2242.3025     -10837.245    
     28600   151.13465      300.49124     -2248.9204      6.603062      -2242.3173     -14203.171    
     28650   147.18999      292.64834     -2248.7564      6.4307204     -2242.3257     -13439.04     
     28700   147.91058      294.08103     -2248.8001      6.4622026     -2242.3379     -13716.436    
     28750   138.27675      274.92672     -2248.3842      6.0413014     -2242.3429     -13432.002    
     28800   149.53528      297.31132     -2248.8842      6.5331857     -2242.351      -12638.137    
     28850   140.85388      280.05066     -2248.5175      6.1538961     -2242.3636     -13598.142    
     28900   145.1337       288.55995     -2248.7173      6.3408811     -2242.3764     -10500.532    
     28950   147.89558      294.05121     -2248.8375      6.4615473     -2242.376      -12331.773    
     29000   138.72228      275.81253     -2248.4521      6.0607666     -2242.3914     -12275.775    
     29050   139.43883      277.2372      -2248.4866      6.0920725     -2242.3946     -11336.585    
     29100   152.09703      302.40469     -2249.0507      6.6451086     -2242.4056     -12974.971    
     29150   145.57764      289.44261     -2248.7784      6.3602769     -2242.4182     -10108.845    
     29200   148.29103      294.83747     -2248.9003      6.4788247     -2242.4214     -12080.93     
     29250   145.87412      290.03207     -2248.8052      6.3732298     -2242.4319     -10335.659    
     29300   133.25189      264.93611     -2248.2529      5.8217657     -2242.4311     -15445.522    
     29350   138.22964      274.83305     -2248.4754      6.0392432     -2242.4362     -11640.175    
     29400   140.38323      279.11489     -2248.5737      6.1333332     -2242.4404     -14846.841    
     29450   152.09077      302.39223     -2249.0951      6.6448348     -2242.4503     -11745.046    
     29500   148.29566      294.84666     -2248.9306      6.4790268     -2242.4516     -12486.4      
     29550   158.21696      314.57254     -2249.3744      6.9124876     -2242.4619     -12222.568    
     29600   139.73869      277.83339     -2248.5625      6.1051733     -2242.4573     -13476.88     
     29650   134.4133       267.24527     -2248.3289      5.8725077     -2242.4564     -13295.182    
     29700   133.68988      265.80694     -2248.3046      5.8409014     -2242.4637     -11791.564    
     29750   137.28216      272.94923     -2248.4566      5.9978477     -2242.4588     -14964.556    
     29800   142.80151      283.923       -2248.7006      6.2389879     -2242.4616     -14421.207    
     29850   152.41878      303.0444      -2249.1184      6.6591657     -2242.4593     -12078.342    
     29900   151.58327      301.38322     -2249.083       6.6226625     -2242.4604     -13340.173    
     29950   142.55233      283.42758     -2248.6901      6.2281013     -2242.462      -13674.076    
     30000   131.1487       260.75447     -2248.1865      5.7298774     -2242.4566     -11299.493    
     30050   149.26916      296.78221     -2248.9779      6.5215589     -2242.4563     -13385.003    
     30100   149.83804      297.91328     -2248.9979      6.5464133     -2242.4515     -15323.004    
     30150   147.39856      293.06303     -2248.8908      6.4398328     -2242.4509     -10744.793    
     30200   138.42198      275.21547     -2248.4924      6.0476466     -2242.4448     -12163.873    
     30250   150.01228      298.25971     -2249.0019      6.5540259     -2242.4479     -12035.696    
     30300   141.92359      282.17749     -2248.6402      6.2006315     -2242.4396     -10806.948    
     30350   143.73594      285.78088     -2248.7186      6.2798132     -2242.4388     -11023.249    
     30400   129.98928      258.44928     -2248.1103      5.6792225     -2242.4311     -12837.947    
     30450   152.16031      302.5305      -2249.0728      6.6478732     -2242.4249     -15442.857    
     30500   145.76217      289.80948     -2248.789       6.3683387     -2242.4206     -9893.46      
     30550   153.3077       304.81179     -2249.1175      6.6980027     -2242.4195     -12799.474    
     30600   148.8412       295.93133     -2248.9103      6.5028615     -2242.4075     -12597.257    
     30650   143.662        285.63385     -2248.6789      6.2765825     -2242.4024     -10691.06     
     30700   143.59261      285.4959      -2248.6642      6.273551      -2242.3906     -12606.161    
     30750   149.46489      297.17137     -2248.9201      6.5301104     -2242.39       -12048.635    
     30800   133.27193      264.97595     -2248.2014      5.8226411     -2242.3787     -12146.621    
     30850   143.49363      285.29909     -2248.6447      6.2692263     -2242.3755     -13162.743    
     30900   141.62653      281.58686     -2248.5553      6.187653      -2242.3677     -11383.381    
     30950   131.99489      262.4369      -2248.1218      5.7668473     -2242.355      -9615.9881    
     31000   140.04597      278.44435     -2248.4781      6.1185986     -2242.3595     -12017.627    
     31050   133.24163      264.91571     -2248.1652      5.8213173     -2242.3438     -11700.705    
     31100   143.55115      285.41346     -2248.6129      6.2717395     -2242.3411     -14829.649    
     31150   139.78202      277.91955     -2248.4382      6.1070667     -2242.3311     -13232.099    
     31200   144.8548       288.00542     -2248.6536      6.3286958     -2242.3249     -13319.165    
     31250   134.85731      268.12807     -2248.1997      5.8919064     -2242.3078     -11488.182    
     31300   142.33037      282.98627     -2248.5165      6.218404      -2242.2981     -12900.754    
     31350   134.09133      266.60512     -2248.144       5.8584409     -2242.2856     -15971.967    
     31400   141.33264      281.00255     -2248.448       6.1748131     -2242.2732     -10907.254    
     31450   136.31179      271.01992     -2248.2135      5.9554525     -2242.2581     -13476.584    
     31500   138.52001      275.41038     -2248.2984      6.0519296     -2242.2465     -12751.532    
     31550   150.33251      298.89641     -2248.8028      6.5680168     -2242.2348     -12388.981    
     31600   151.60653      301.42945     -2248.8419      6.6236785     -2242.2182     -14397.415    
     31650   143.68323      285.67607     -2248.4769      6.2775102     -2242.1994     -11534.353    
     31700   135.23129      268.87162     -2248.0847      5.9082453     -2242.1765     -16070.64     
     31750   147.93675      294.13306     -2248.6323      6.463346      -2242.1689     -12428.095    
     31800   159.69695      317.51512     -2249.13        6.9771485     -2242.1528     -13904.649    
     31850   136.28272      270.96211     -2248.0826      5.9541822     -2242.1284     -11165.756    
     31900   144.64008      287.57852     -2248.4265      6.3193149     -2242.1072     -13725.918    
     31950   144.10522      286.51508     -2248.3863      6.2959467     -2242.0904     -13980.707    
     32000   144.29192      286.88629     -2248.3801      6.3041038     -2242.076      -13345.689    
     32050   141.25052      280.83926     -2248.2264      6.171225      -2242.0551     -11403.888    
     32100   138.23248      274.83869     -2248.0708      6.0393671     -2242.0314     -14154.433    
     32150   135.4843       269.37466     -2247.9289      5.9192994     -2242.0096     -11445.068    
     32200   142.43361      283.19153     -2248.2137      6.2229143     -2241.9908     -14351.385    
     32250   150.76038      299.74711     -2248.561       6.5867103     -2241.9743     -12763.782    
     32300   153.78977      305.77025     -2248.6716      6.7190642     -2241.9525     -11428.273    
     32350   154.40443      306.99234     -2248.6767      6.7459187     -2241.9307     -14869.774    
     32400   141.23025      280.79896     -2248.0752      6.1703394     -2241.9048     -15376.347    
     32450   138.36006      275.09235     -2247.9333      6.044941      -2241.8884     -13733.597    
     32500   149.99397      298.22331     -2248.4299      6.5532261     -2241.8767     -13117.724    
     32550   147.10361      292.47659     -2248.2789      6.4269462     -2241.852      -11532.014    
     32600   138.30158      274.97608     -2247.8719      6.0423861     -2241.8295     -13145.737    
     32650   149.59705      297.43412     -2248.3453      6.5358843     -2241.8095     -15067.036    
     32700   141.82532      281.98211     -2247.9751      6.1963382     -2241.7788     -12977.107    
     32750   141.42889      281.1939      -2247.9404      6.179018      -2241.7614     -12976.569    
     32800   148.97409      296.19555     -2248.2532      6.5086676     -2241.7445     -13445.712    
     32850   163.75199      325.57748     -2248.8757      7.1543126     -2241.7213     -11809.149    
     32900   162.68279      323.45166     -2248.8048      7.1075993     -2241.6973     -14634.235    
     32950   156.67031      311.49744     -2248.5229      6.8449147     -2241.678      -12674.579    
     33000   153.22575      304.64884     -2248.3508      6.694422      -2241.6564     -11874.779    
     33050   145.02718      288.34816     -2247.9709      6.3362274     -2241.6347     -11920.586    
     33100   146.44583      291.16877     -2248.0125      6.3982081     -2241.6143     -12317.494    
     33150   151.90838      302.02961     -2248.2313      6.6368665     -2241.5945     -12597.3      
     33200   133.73267      265.89202     -2247.4094      5.842771      -2241.5666     -12690.255    
     33250   150.99217      300.20796     -2248.151       6.5968372     -2241.5542     -12246.769    
     33300   154.61977      307.42048     -2248.2944      6.7553267     -2241.539      -11122.394    
     33350   162.27251      322.63594     -2248.6081      7.0896746     -2241.5184     -15974.774    
     33400   157.54554      313.23761     -2248.3867      6.8831536     -2241.5036     -13657.137    
     33450   144.07075      286.44654     -2247.7744      6.2944406     -2241.48       -12484.828    
     33500   154.87404      307.92604     -2248.231       6.7664359     -2241.4646     -13391.363    
     33550   151.8361       301.8859      -2248.0736      6.6337085     -2241.4399     -11592.508    
     33600   143.81639      285.94083     -2247.7102      6.283328      -2241.4269     -13406.8      
     33650   145.02797      288.34972     -2247.7454      6.3362616     -2241.4091     -12409.385    
     33700   150.38029      298.99141     -2247.9643      6.5701043     -2241.3942     -11661.729    
     33750   141.94854      282.2271      -2247.5765      6.2017217     -2241.3748     -12095.731    
     33800   154.2096       306.60498     -2248.0922      6.7374067     -2241.3548     -11315.079    
     33850   151.12664      300.47532     -2247.9411      6.6027122     -2241.3384     -13784.407    
     33900   152.34137      302.89048     -2247.9774      6.6557835     -2241.3216     -8522.8043    
     33950   165.30487      328.66497     -2248.5266      7.2221578     -2241.3045     -10831.355    
     34000   161.55856      321.21643     -2248.3429      7.058482      -2241.2844     -10236.985    
     34050   154.90446      307.98652     -2248.029       6.767765      -2241.2613     -13233.6      
     34100   153.70272      305.59718     -2247.9711      6.7152611     -2241.2559     -11687.164    
     34150   149.49726      297.23572     -2247.7732      6.5315245     -2241.2416     -11390.082    
     34200   136.43236      271.25964     -2247.1884      5.9607202     -2241.2276     -9809.0492    
     34250   149.39664      297.03567     -2247.7429      6.5271286     -2241.2158     -11743.154    
     34300   147.18194      292.63232     -2247.635       6.4303684     -2241.2046     -12521.661    
     34350   148.92853      296.10496     -2247.7063      6.5066769     -2241.1996     -13593.981    
     34400   147.58477      293.43325     -2247.6357      6.4479682     -2241.1878     -9057.5224    
     34450   160.03091      318.1791      -2248.1688      6.991739      -2241.1771     -13973.069    
     34500   153.83684      305.86384     -2247.8833      6.7211208     -2241.1622     -9905.7775    
     34550   163.01798      324.11809     -2248.2721      7.1222438     -2241.1499     -12392.859    
     34600   170.02399      338.0477      -2248.566       7.4283361     -2241.1377     -10965.395    
     34650   154.00048      306.18919     -2247.8566      6.7282701     -2241.1283     -11741.574    
[...]
    191150   158.89242      315.91551     -2261.2476      6.9419985     -2254.3056     -24157.934    
    191200   145.10983      288.51248     -2260.6658      6.3398381     -2254.326      -27630.403    
    191250   154.41371      307.01078     -2261.0933      6.7463238     -2254.347      -25711.435    
    191300   145.16328      288.61875     -2260.6993      6.3421732     -2254.3571     -28585.918    
    191350   146.89347      292.05878     -2260.7955      6.4177653     -2254.3778     -29819.33     
    191400   153.38251      304.96052     -2261.1006      6.7012711     -2254.3993     -28826.796    
    191450   142.8542       284.02777     -2260.6572      6.2412899     -2254.4159     -24656.262    
    191500   148.88503      296.01847     -2260.9382      6.5047763     -2254.4334     -26470.62     
    191550   147.14807      292.56499     -2260.8846      6.4288889     -2254.4558     -27040.663    
    191600   148.50278      295.25848     -2260.9581      6.4880761     -2254.47       -28360.932    
    191650   148.55221      295.35675     -2260.9789      6.4902355     -2254.4886     -26477.046    
    191700   142.07278      282.47412     -2260.7099      6.2071498     -2254.5028     -24267.925    
    191750   143.97821      286.26255     -2260.811       6.2903976     -2254.5206     -27320.302    
    191800   141.57065      281.47575     -2260.717       6.1852115     -2254.5318     -27120.331    
    191850   148.1454       294.54792     -2261.0247      6.4724622     -2254.5523     -26840.078    
    191900   134.57342      267.56362     -2260.4456      5.879503      -2254.5661     -28874.193    
    191950   137.30027      272.98525     -2260.5786      5.9986392     -2254.58       -29240.83     
    192000   158.58989      315.31402     -2261.5248      6.9287812     -2254.596      -25349.072    
    192050   139.38603      277.13223     -2260.6992      6.0897659     -2254.6095     -26311.401    
    192100   160.38303      318.87921     -2261.6295      7.0071234     -2254.6224     -28151.823    
    192150   139.48954      277.33802     -2260.7217      6.094288      -2254.6274     -28040.469    
    192200   150.26664      298.76543     -2261.2165      6.5651387     -2254.6513     -28815.604    
    192250   142.46273      283.24944     -2260.8773      6.2241867     -2254.6531     -26153.178    
    192300   139.49399      277.34688     -2260.7612      6.0944827     -2254.6667     -25487.836    
    192350   154.24308      306.67154     -2261.4201      6.7388694     -2254.6812     -26632.234    
    192400   140.80289      279.94927     -2260.8409      6.1516683     -2254.6892     -25612.513    
    192450   145.97819      290.23899     -2261.0744      6.3777768     -2254.6967     -28822.643    
    192500   141.89353      282.11772     -2260.9034      6.1993182     -2254.7041     -30108.707    
    192550   140.01048      278.37378     -2260.8303      6.117048      -2254.7133     -25999.778    
    192600   150.27672      298.78548     -2261.2882      6.5655794     -2254.7226     -22953.942    
    192650   154.28769      306.76024     -2261.4778      6.7408184     -2254.737      -28436.532    
    192700   141.4917       281.3188      -2260.9205      6.1817624     -2254.7387     -26825.78     
    192750   141.50786      281.35093     -2260.9297      6.1824685     -2254.7472     -27784.448    
    192800   135.25704      268.92282     -2260.6582      5.9093705     -2254.7489     -26547.402    
    192850   138.89437      276.15468     -2260.8274      6.068285      -2254.7591     -24779.829    
    192900   145.39894      289.08731     -2261.1173      6.3524694     -2254.7648     -27860.052    
    192950   143.686        285.68157     -2261.0545      6.277631      -2254.7768     -28665.431    
    193000   155.19926      308.57264     -2261.5588      6.7806445     -2254.7782     -28364.589    
    193050   143.31138      284.93674     -2261.0377      6.2612639     -2254.7764     -26358.863    
    193100   140.71913      279.78274     -2260.9321      6.1480088     -2254.7841     -26860.173    
    193150   136.6541       271.7005      -2260.7568      5.9704078     -2254.7863     -28566.165    
    193200   149.92262      298.08144     -2261.3426      6.5501086     -2254.7925     -29752.666    
    193250   147.89014      294.04039     -2261.2617      6.4613096     -2254.8003     -30722.727    
    193300   145.92506      290.13336     -2261.1775      6.3754556     -2254.8021     -25433.207    
    193350   138.90019      276.16626     -2260.8691      6.0685395     -2254.8006     -27322.159    
    193400   143.10082      284.5181      -2261.0562      6.2520646     -2254.8041     -25846.76     
    193450   141.74259      281.81762     -2260.9936      6.1927236     -2254.8009     -29474.134    
    193500   140.61117      279.56809     -2260.9479      6.143292      -2254.8046     -25706.979    
    193550   143.82033      285.94865     -2261.0869      6.2834999     -2254.8034     -28921.689    
    193600   150.14787      298.52929     -2261.3736      6.5599497     -2254.8137     -22869.376    
    193650   144.28673      286.87597     -2261.1111      6.303877      -2254.8072     -25974.44     
    193700   130.39956      259.265       -2260.5027      5.6971474     -2254.8056     -24516.209    
    193750   145.86229      290.00855     -2261.1793      6.3727129     -2254.8066     -26349.282    
    193800   144.64959      287.59743     -2261.1279      6.3197304     -2254.8082     -27343.388    
    193850   145.06501      288.42337     -2261.1395      6.3378799     -2254.8016     -27236.732    
    193900   143.27762      284.86963     -2261.065       6.2597892     -2254.8052     -25925.912    
    193950   145.0021       288.2983      -2261.1377      6.3351317     -2254.8026     -22707.551    
    194000   157.80056      313.74464     -2261.7015      6.8942952     -2254.8072     -25544.903    
    194050   144.542        287.38351     -2261.1129      6.3150299     -2254.7979     -29148.866    
    194100   150.3519       298.93496     -2261.3635      6.568864      -2254.7946     -29890.286    
    194150   153.32083      304.83788     -2261.491       6.698576      -2254.7924     -26967.82     
    194200   141.76337      281.85894     -2260.9811      6.1936318     -2254.7875     -29226.872    
    194250   156.97723      312.10766     -2261.6437      6.8583238     -2254.7854     -26652.432    
    194300   144.30591      286.9141      -2261.0799      6.3047149     -2254.7751     -31596.461    
    194350   146.33462      290.94766     -2261.1661      6.3933493     -2254.7727     -26750.507    
    194400   141.95542      282.24078     -2260.9651      6.2020223     -2254.7631     -26088.291    
    194450   151.25296      300.72648     -2261.3767      6.6082313     -2254.7685     -21984.831    
    194500   141.83051      281.99243     -2260.9525      6.1965651     -2254.7559     -24810.753    
    194550   134.07089      266.56448     -2260.6151      5.8575478     -2254.7575     -29811.321    
    194600   148.36086      294.9763      -2261.2343      6.4818754     -2254.7524     -26059.269    
    194650   142.47593      283.27567     -2260.9729      6.2247633     -2254.7481     -27731.114    
    194700   160.34683      318.80723     -2261.7498      7.0055418     -2254.7443     -30870.379    
    194750   139.88781      278.12988     -2260.8465      6.1116884     -2254.7348     -32357.899    
    194800   145.22106      288.73364     -2261.0754      6.3446979     -2254.7307     -22699.536    
    194850   148.8805       296.00947     -2261.2258      6.5045786     -2254.7213     -26553.355    
    194900   128.3953       255.28007     -2260.317       5.6095815     -2254.7074     -29469.818    
    194950   152.8078       303.81787     -2261.3795      6.676162      -2254.7033     -31271.098    
    195000   145.33403      288.95825     -2261.0423      6.3496334     -2254.6927     -28065.588    
    195050   150.87664      299.97827     -2261.275       6.5917899     -2254.6832     -31066.3      
    195100   135.83801      270.07792     -2260.6044      5.9347529     -2254.6696     -24123.351    
    195150   153.50445      305.20296     -2261.3771      6.7065985     -2254.6705     -29235.301    
    195200   138.97927      276.32349     -2260.7309      6.0719944     -2254.6589     -27875.488    
    195250   143.73685      285.78268     -2260.9259      6.2798528     -2254.646      -24414.61     
    195300   156.55478      311.26774     -2261.4829      6.8398673     -2254.643      -26211.336    
    195350   133.35578      265.14266     -2260.452       5.8263045     -2254.6257     -25148.41     
    195400   154.49929      307.18094     -2261.3681      6.750063      -2254.618      -28234.265    
    195450   136.86541      272.12065     -2260.5837      5.9796402     -2254.604      -24493.039    
    195500   138.98894      276.34272     -2260.6688      6.072417      -2254.5964     -26926.256    
    195550   144.6187       287.53601     -2260.8964      6.3183809     -2254.5781     -29730.218    
    195600   137.56958      273.52069     -2260.588       6.0104052     -2254.5776     -24262.555    
    195650   150.90938      300.04335     -2261.1538      6.59322       -2254.5606     -26410.383    
    195700   131.29152      261.03843     -2260.2805      5.736117      -2254.5444     -29676.755    
    195750   146.61587      291.50685     -2260.9502      6.4056369     -2254.5446     -27290.785    
    195800   138.78709      275.94138     -2260.5949      6.063598      -2254.5313     -26087.979    
    195850   154.09804      306.38315     -2261.255       6.7325322     -2254.5225     -29709.107    
    195900   138.1519       274.67849     -2260.5464      6.0358468     -2254.5105     -29311.132    
    195950   147.13357      292.53616     -2260.9235      6.4282553     -2254.4952     -26849.065    
    196000   147.85225      293.96507     -2260.9405      6.4596545     -2254.4808     -32130.785    
    196050   149.15226      296.54978     -2260.9779      6.5164515     -2254.4614     -24965.883    
    196100   143.29521      284.9046      -2260.7071      6.2605577     -2254.4466     -30773.702    
    196150   140.23351      278.81722     -2260.5507      6.1267922     -2254.4239     -26104.632    
    196200   140.20139      278.75336     -2260.5352      6.1253889     -2254.4098     -26387.448    
    196250   149.52648      297.29382     -2260.9225      6.5328012     -2254.3897     -30828.878    
    196300   146.44195      291.16105     -2260.7743      6.3980382     -2254.3763     -23556.187    
    196350   135.13097      268.67217     -2260.2559      5.9038625     -2254.352      -31124.611    
    196400   146.7345       291.74272     -2260.7379      6.4108201     -2254.327      -30170.191    
    196450   143.70269      285.71476     -2260.5881      6.2783604     -2254.3097     -28686.993    
    196500   156.3919       310.9439      -2261.116       6.832751      -2254.2833     -23675.351    
    196550   151.22201      300.66495     -2260.8653      6.6068791     -2254.2584     -25212.3      
    196600   144.96625      288.22701     -2260.5676      6.333565      -2254.2341     -24596.569    
    196650   147.05485      292.37965     -2260.6353      6.424816      -2254.2105     -29984.913    
    196700   150.4708       299.17136     -2260.7643      6.5740586     -2254.1902     -26625.37     
    196750   146.38322      291.04428     -2260.5572      6.3954725     -2254.1617     -28094.054    
    196800   157.10127      312.3543      -2261.0039      6.8637435     -2254.1402     -26591.178    
    196850   143.04481      284.40675     -2260.3601      6.2496177     -2254.1105     -29640.391    
    196900   145.73231      289.75012     -2260.4505      6.3670341     -2254.0835     -28095.705    
    196950   152.5607       303.32657     -2260.7161      6.6653662     -2254.0507     -25246.886    
    197000   155.55143      309.27283     -2260.8111      6.7960308     -2254.0151     -29877.519    
    197050   147.87102      294.00238     -2260.445       6.4604742     -2253.9846     -26744.791    
    197100   153.45964      305.11387     -2260.6552      6.7046407     -2253.9506     -26198.315    
    197150   139.72778      277.81171     -2260.0201      6.104697      -2253.9154     -25514.839    
    197200   153.20676      304.61108     -2260.569       6.6935924     -2253.8754     -28455.215    
    197250   161.68609      321.47        -2260.9054      7.064054      -2253.8414     -31798.027    
    197300   159.52632      317.17586     -2260.7819      6.9696936     -2253.8122     -24755.424    
    197350   152.54544      303.29623     -2260.438       6.6646995     -2253.7733     -26155.845    
    197400   162.79251      323.66981     -2260.8583      7.1123931     -2253.7459     -28222.612    
    197450   142.35337      283.03199     -2259.9221      6.2194085     -2253.7027     -29099.86     
    197500   161.3571       320.81587     -2260.7169      7.0496801     -2253.6673     -30707.296    
    197550   155.51311      309.19666     -2260.4242      6.7943568     -2253.6298     -27786.888    
    197600   156.18483      310.53219     -2260.4106      6.8237041     -2253.5869     -30701.169    
    197650   170.27617      338.54909     -2261.0019      7.4393537     -2253.5626     -29339.853    
    197700   153.13602      304.47045     -2260.2113      6.690502      -2253.5208     -28684.204    
    197750   164.90531      327.87055     -2260.6877      7.2047011     -2253.483      -28031.402    
    197800   169.00233      336.01639     -2260.8311      7.3836997     -2253.4474     -29227.693    
    197850   150.15769      298.54881     -2259.9702      6.5603787     -2253.4098     -26445.6      
    197900   177.42259      352.75785     -2261.133       7.7515802     -2253.3814     -27676.995    
    197950   160.28921      318.69266     -2260.3497      7.003024      -2253.3467     -29179.01     
    198000   148.87307      295.99468     -2259.8179      6.5042537     -2253.3137     -24340.382    
    198050   162.58808      323.26335     -2260.3911      7.1034615     -2253.2876     -26527.588    
    198100   159.74345      317.60756     -2260.2389      6.97918       -2253.2598     -26296.529    
    198150   166.98441      332.0043      -2260.5216      7.295537      -2253.226      -25308.448    
    198200   164.44316      326.95169     -2260.3845      7.1845099     -2253.1999     -25448.077    
    198250   157.29472      312.73891     -2260.0363      6.872195      -2253.1641     -22715.569    
    198300   168.30442      334.62878     -2260.5015      7.3532081     -2253.1483     -26621.867    
    198350   160.06836      318.25355     -2260.12        6.9933751     -2253.1266     -27675.845    
    198400   165.04795      328.15416     -2260.3157      7.2109332     -2253.1048     -23927.251    
    198450   173.67013      345.29708     -2260.6797      7.5876357     -2253.0921     -28697.39     
    198500   163.52025      325.11674     -2260.2155      7.1441883     -2253.0713     -29916.155    
    198550   165.55149      329.15531     -2260.2921      7.2329327     -2253.0591     -28160.008    
    198600   163.82608      325.7248      -2260.2043      7.15755       -2253.0468     -29502.077    
    198650   149.78291      297.80366     -2259.5759      6.5440046     -2253.0319     -27906.241    
    198700   166.21248      330.46952     -2260.2834      7.2618114     -2253.0216     -23524.372    
    198750   156.86292      311.8804      -2259.8654      6.8533299     -2253.012      -31225.376    
    198800   159.78566      317.6915      -2259.9804      6.9810243     -2252.9994     -27588.274    
    198850   177.90534      353.71769     -2260.7718      7.7726719     -2252.9991     -24095.275    
    198900   154.59959      307.38036     -2259.7395      6.7544451     -2252.9851     -29606.033    
    198950   158.34665      314.8304      -2259.9055      6.9181539     -2252.9874     -24838.52     
    199000   175.90343      349.7374      -2260.6749      7.6852082     -2252.9897     -26529.448    
    199050   151.79206      301.79834     -2259.6105      6.6317845     -2252.9787     -30580.331    
    199100   175.04794      348.03648     -2260.6241      7.6478319     -2252.9763     -28521.152    
    199150   158.82044      315.7724      -2259.9135      6.9388536     -2252.9747     -24608.847    
    199200   167.1511       332.33573     -2260.2753      7.3028199     -2252.9725     -28642.532    
    199250   159.41803      316.96055     -2259.9393      6.9649623     -2252.9743     -26008.341    
    199300   160.54898      319.20914     -2259.9838      7.0143734     -2252.9694     -24647.667    
    199350   158.07561      314.29151     -2259.876       6.9063123     -2252.9697     -28258.249    
    199400   153.99131      306.17097     -2259.6998      6.7278696     -2252.972      -24307.697    
    199450   174.44738      346.84243     -2260.6002      7.6215936     -2252.9786     -23779.744    
    199500   150.64254      299.51282     -2259.5565      6.581562      -2252.9749     -24793.603    
    199550   168.7737       335.56182     -2260.3627      7.3737108     -2252.989      -26026.829    
    199600   163.64796      325.37065     -2260.146       7.1497678     -2252.9962     -27054.163    
    199650   165.5629       329.17799     -2260.2195      7.2334312     -2252.986      -24565.373    
    199700   159.34689      316.81912     -2259.9559      6.9618545     -2252.9941     -24240.21     
    199750   156.93107      312.0159      -2259.8518      6.8563075     -2252.9955     -30762.824    
    199800   151.54893      301.31492     -2259.6256      6.6211618     -2253.0045     -25264.509    
    199850   159.07179      316.27216     -2259.959       6.9498354     -2253.0091     -27003.055    
    199900   163.76649      325.60631     -2260.1773      7.1549462     -2253.0224     -28359.983    
    199950   146.31335      290.90537     -2259.4248      6.39242       -2253.0323     -28305.66     
    200000   158.4931       315.12158     -2259.9644      6.9245525     -2253.0398     -26656.297    
colvars: Saving collective variables state to "out.colvars.state".
colvars:   Writing TI PMF to file "out.metadynamics1.ti.pmf".
Loop time of 1000.66 on 4 procs for 200000 steps with 339 atoms

Performance: 8.634 ns/day, 2.780 hours/ns, 199.869 timesteps/s, 67.756 katom-step/s
137.4% CPU use with 4 MPI tasks x 1 OpenMP threads

MPI task timing breakdown:
Section |  min time  |  avg time  |  max time  |%varavg| %total
---------------------------------------------------------------
Pair    | 735.42     | 844.02     | 967.05     | 359.0 | 84.35
Neigh   | 0.16715    | 1.2337     | 2.1256     |  65.2 |  0.12
Comm    | 12.488     | 109.76     | 191.41     | 757.6 | 10.97
Output  | 4.4848     | 5.2675     | 6.164      |  33.3 |  0.53
Modify  | 11.622     | 37.881     | 72.99      | 435.6 |  3.79
Other   |            | 2.496      |            |       |  0.25

Nlocal:          84.75 ave         140 max           0 min
Histogram: 1 0 0 0 0 0 1 1 0 1
Nghost:           1168 ave        1695 max         585 min
Histogram: 1 0 0 0 0 2 0 0 0 1
Neighs:              0 ave           0 max           0 min
Histogram: 4 0 0 0 0 0 0 0 0 0
FullNghs:      16046.5 ave       31645 max           0 min
Histogram: 1 0 0 0 1 0 1 0 0 1

Total # of neighbors = 64186
Ave neighs/atom = 189.33923
Neighbor list builds = 2189
Dangerous builds = 0
System init for write_data ...
Generated 0 of 6 mixed pair_coeff terms from geometric mixing rule

CITE-CITE-CITE-CITE-CITE-CITE-CITE-CITE-CITE-CITE-CITE-CITE-CITE

Your simulation uses code contributions which should be cited:
- Colvars module (Fiorin2013, plus other works listed for specific features)
The log file lists these citations in BibTeX format.

CITE-CITE-CITE-CITE-CITE-CITE-CITE-CITE-CITE-CITE-CITE-CITE-CITE

Total wall time: 0:17:11
