LAMMPS (2 Aug 2023)
OMP_NUM_THREADS environment is not set. Defaulting to 1 thread. (src/comm.cpp:98)
  using 1 OpenMP thread(s) per MPI task
Loaded 1 plugins from /work/home/baoergen22b/apprepo/deepmd/v2.2.9-dtk23.10/app/lib/deepmd_lmp
Reading data file ...
  orthogonal box = (0 0 0) to (11.328 12.015 32)
  1 by 1 by 4 MPI processor grid
  reading atoms ...
  338 atoms
  read_data CPU = 0.509 seconds
Summary of lammps deepmd module ...
  >>> Info of deepmd-kit:
  installed to:       /work/home/wys974137909/shangcheng/deepmd-kit/20240715/deepmd-kit_v2.2.9/install
  source:             v2.2.9
  source branch:      HEAD
  source commit:      be43748
  source commit at:   2024-02-04 13:44:12 +0800
  support model ver.: 1.1 
  build variant:      rocm
  build with tf inc:  /work/home/wys974137909/shangcheng/miniconda3/envs/deepmd-kit-v2.2.9/lib/python3.8/site-packages/tensorflow/include;/work/home/wys974137909/shangcheng/miniconda3/envs/deepmd-kit-v2.2.9/lib/python3.8/site-packages/tensorflow/include
  build with tf lib:  /work/home/wys974137909/shangcheng/miniconda3/envs/deepmd-kit-v2.2.9/lib/python3.8/site-packages/tensorflow/lib/libtensorflow_cc.so
  set tf intra_op_parallelism_threads: 0
  set tf inter_op_parallelism_threads: 0
  >>> Info of lammps module:
  use deepmd-kit at:  /work/home/wys974137909/shangcheng/deepmd-kit/20240715/deepmd-kit_v2.2.9/install
  source:             v2.2.9
  source branch:      HEAD
  source commit:      be43748
  source commit at:   2024-02-04 13:44:12 +0800
  build float prec:   double
  build with tf inc:  /work/home/wys974137909/shangcheng/miniconda3/envs/deepmd-kit-v2.2.9/lib/python3.8/site-packages/tensorflow/include;/work/home/wys974137909/shangcheng/miniconda3/envs/deepmd-kit-v2.2.9/lib/python3.8/site-packages/tensorflow/include
  build with tf lib:  /work/home/wys974137909/shangcheng/miniconda3/envs/deepmd-kit-v2.2.9/lib/python3.8/site-packages/tensorflow/lib/libtensorflow_cc.so
INVALID_ARGUMENT: Tensor spin_attr/ntypes_spin:0, specified in either feed_devices or fetch_devices was not found in the Graph
INVALID_ARGUMENT: Tensor spin_attr/ntypes_spin:0, specified in either feed_devices or fetch_devices was not found in the Graph
INVALID_ARGUMENT: Tensor spin_attr/ntypes_spin:0, specified in either feed_devices or fetch_devices was not found in the Graph
INVALID_ARGUMENT: Tensor spin_attr/ntypes_spin:0, specified in either feed_devices or fetch_devices was not found in the Graph
  >>> Info of model(s):
  using   1 model(s): graph-compress.pb 
  rcut in model:      6
  ntypes in model:    5
167 atoms in group fixed
171 atoms in group mobile

CITE-CITE-CITE-CITE-CITE-CITE-CITE-CITE-CITE-CITE-CITE-CITE-CITE

Your simulation uses code contributions which should be cited:
- GPU package (short-range, long-range and three-body potentials): doi:10.1016/j.cpc.2010.12.021, doi:10.1016/j.cpc.2011.10.012, doi:10.1016/j.cpc.2013.08.002, doi:10.1016/j.commatsci.2014.10.068, doi:10.1016/j.cpc.2016.10.020, doi:10.3233/APC200086
- USER-DEEPMD package:
The log file lists these citations in BibTeX format.

CITE-CITE-CITE-CITE-CITE-CITE-CITE-CITE-CITE-CITE-CITE-CITE-CITE

Generated 0 of 10 mixed pair_coeff terms from geometric mixing rule
Neighbor list info ...
  update: every = 1 steps, delay = 0 steps, check = yes
  max neighbors/atom: 2000, page size: 100000
  master list distance cutoff = 8
  ghost atom cutoff = 8
  binsize = 4, bins = 3 4 8
  1 neighbor lists, perpetual/occasional/extra = 1 0 0
  (1) pair deepmd, perpetual
      attributes: full, newton on
      pair build: full/bin/atomonly
      stencil: full/bin/3d
      bin: standard
Setting up Verlet run ...
  Unit style    : metal
  Current step  : 0
  Time step     : 0.0005
colvars: Creating proxy instance
colvars: ----------------------------------------------------------------------
colvars: Initializing the collective variables module, version 2023-05-01.
colvars: Please cite Fiorin et al, Mol Phys 2013:
colvars:   https://doi.org/10.1080/00268976.2013.813594
colvars: as well as all other papers listed below for individual features used.
colvars: This version was built with the C++11 standard or higher.
colvars: Using LAMMPS interface, version "2023-04-12".
colvars: ----------------------------------------------------------------------
colvars: Reading new configuration from file "pmf.in":
colvars: # units = "" [default]
colvars: # smp = on [default]
colvars: # colvarsTrajFrequency = 100 [default]
colvars: # colvarsRestartFrequency = 0 [default]
colvars: # scriptedColvarForces = off [default]
colvars: # scriptingAfterBiases = off [default]
colvars: ----------------------------------------------------------------------
colvars:   Initializing a new collective variable.
colvars:   # name = "cn_fe_fe"
colvars:   Initializing a new "coordNum" component.
colvars:     # name = "" [default]
colvars:     # componentCoeff = 1 [default]
colvars:     # componentExp = 1 [default]
colvars:     # period = 0 [default]
colvars:     # wrapAround = 0 [default]
colvars:     # forceNoPBC = off [default]
colvars:     # scalable = on [default]
colvars:       Initializing atom group "group1".
colvars:       # name = "" [default]
colvars:       # centerToOrigin = off [default]
colvars:       # centerToReference = off [default]
colvars:       # rotateToReference = off [default]
colvars:       # atomsOfGroup = "" [default]
colvars:       # indexGroup = "" [default]
colvars:       # psfSegID =  [default]
colvars:       # atomsFile = "" [default]
colvars:       # dummyAtom = ( 0 , 0 , 0 ) [default]
colvars:       # enableFitGradients = on [default]
colvars:       # printAtomIDs = off [default]
colvars:       Atom group "group1" defined with 1 atoms requested.
colvars:       Initializing atom group "group2".
colvars:       # name = "" [default]
colvars:       # centerToOrigin = off [default]
colvars:       # centerToReference = off [default]
colvars:       # rotateToReference = off [default]
colvars:       # atomsOfGroup = "" [default]
colvars:       # indexGroup = "" [default]
colvars:       # psfSegID =  [default]
colvars:       # atomsFile = "" [default]
colvars:       # dummyAtom = ( 0 , 0 , 0 ) [default]
colvars:       # enableFitGradients = on [default]
colvars:       # printAtomIDs = off [default]
colvars:       Atom group "group2" defined with 167 atoms requested.
colvars:     # cutoff = 2.5
colvars:     # cutoff3 = ( 4 , 4 , 4 ) [default]
colvars:     # expNumer = 6 [default]
colvars:     # expDenom = 12 [default]
colvars:     # group2CenterOnly = off [default]
colvars:     # tolerance = 0 [default]
colvars:   All components initialized.
colvars:   # timeStepFactor = 1 [default]
colvars:   # width = 0.2
colvars:   # lowerBoundary = 0
colvars:   # upperBoundary = 6
colvars:   # hardLowerBoundary = off [default]
colvars:   # hardUpperBoundary = off [default]
colvars:   # expandBoundaries = off [default]
colvars:   # extendedLagrangian = off [default]
colvars:   # outputValue = on [default]
colvars:   # outputVelocity = off [default]
colvars:   # outputTotalForce = off [default]
colvars:   # outputAppliedForce = off [default]
colvars:   # subtractAppliedForce = off [default]
colvars:   # runAve = off [default]
colvars:   # corrFunc = off [default]
colvars: ----------------------------------------------------------------------
colvars:   Initializing a new collective variable.
colvars:   # name = "cn_fe_o"
colvars:   Initializing a new "coordNum" component.
colvars:     # name = "" [default]
colvars:     # componentCoeff = 1 [default]
colvars:     # componentExp = 1 [default]
colvars:     # period = 0 [default]
colvars:     # wrapAround = 0 [default]
colvars:     # forceNoPBC = off [default]
colvars:     # scalable = on [default]
colvars:       Initializing atom group "group1".
colvars:       # name = "" [default]
colvars:       # centerToOrigin = off [default]
colvars:       # centerToReference = off [default]
colvars:       # rotateToReference = off [default]
colvars:       # atomsOfGroup = "" [default]
colvars:       # indexGroup = "" [default]
colvars:       # psfSegID =  [default]
colvars:       # atomsFile = "" [default]
colvars:       # dummyAtom = ( 0 , 0 , 0 ) [default]
colvars:       # enableFitGradients = on [default]
colvars:       # printAtomIDs = off [default]
colvars:       Atom group "group1" defined with 1 atoms requested.
colvars:       Initializing atom group "group2".
colvars:       # name = "" [default]
colvars:       # centerToOrigin = off [default]
colvars:       # centerToReference = off [default]
colvars:       # rotateToReference = off [default]
colvars:       # atomsOfGroup = "" [default]
colvars:       # indexGroup = "" [default]
colvars:       # psfSegID =  [default]
colvars:       # atomsFile = "" [default]
colvars:       # dummyAtom = ( 0 , 0 , 0 ) [default]
colvars:       # enableFitGradients = on [default]
colvars:       # printAtomIDs = off [default]
colvars:       Atom group "group2" defined with 56 atoms requested.
colvars:     # cutoff = 3
colvars:     # cutoff3 = ( 4 , 4 , 4 ) [default]
colvars:     # expNumer = 6 [default]
colvars:     # expDenom = 12 [default]
colvars:     # group2CenterOnly = off [default]
colvars:     # tolerance = 0 [default]
colvars:   All components initialized.
colvars:   # timeStepFactor = 1 [default]
colvars:   # width = 0.1
colvars:   # lowerBoundary = 0.5
colvars:   # upperBoundary = 7
colvars:   # hardLowerBoundary = off [default]
colvars:   # hardUpperBoundary = off [default]
colvars:   # expandBoundaries = off [default]
colvars:   # extendedLagrangian = off [default]
colvars:   # outputValue = on [default]
colvars:   # outputVelocity = off [default]
colvars:   # outputTotalForce = off [default]
colvars:   # outputAppliedForce = off [default]
colvars:   # subtractAppliedForce = off [default]
colvars:   # runAve = off [default]
colvars:   # corrFunc = off [default]
colvars: ----------------------------------------------------------------------
colvars: Collective variables initialized, 2 in total.
colvars: ----------------------------------------------------------------------
colvars:   Initializing a new "metadynamics" instance.
colvars:   # name = "meta2d"
colvars:   # colvars = { cn_fe_fe, cn_fe_o }
colvars:   # stepZeroData = off [default]
colvars:   # outputEnergy = off [default]
colvars:   # outputFreq = 0 [default]
colvars:   # timeStepFactor = 1 [default]
colvars:   # writeTISamples = off [default]
colvars:   # writeTIPMF = off [default]
colvars:   # hillWeight = 0.05
colvars:   # newHillFrequency = 300
colvars:   # gaussianSigmas =  [default]
colvars:   # hillWidth = 0.1
colvars:   Half-widths of the Gaussian hills (sigma's):
colvars:   cn_fe_fe: 0.01
colvars:   cn_fe_o: 0.005
colvars:   # multipleReplicas = off [default]
colvars:   # useGrids = on [default]
colvars:   Warning: gaussianSigmas is too narrow for the grid spacing along cn_fe_fe.
colvars:   Warning: gaussianSigmas is too narrow for the grid spacing along cn_fe_o.
colvars:   # gridsUpdateFrequency = 300 [default]
colvars:   # rebinGrids = off [default]
colvars:   # writeFreeEnergyFile = on [default]
colvars:   # keepHills = off [default]
colvars:   # keepFreeEnergyFiles = off [default]
colvars:   # writeHillsTrajectory = off [default]
colvars:   # wellTempered = off [default]
colvars:   # biasTemperature = 800
colvars:   # ebMeta = off [default]
colvars: ----------------------------------------------------------------------
colvars: Collective variables biases initialized, 1 in total.
colvars: ----------------------------------------------------------------------
colvars: Collective variables module (re)initialized.
colvars: ----------------------------------------------------------------------
colvars: Re-initialized atom group for variable "cn_fe_fe":0/0. 1 atoms: total mass = 55.845, total charge = 4.68874e-310.
colvars: Re-initialized atom group for variable "cn_fe_fe":0/1. 167 atoms: total mass = 9322.27, total charge = 12.2512.
colvars: Re-initialized atom group for variable "cn_fe_o":0/0. 1 atoms: total mass = 55.845, total charge = 4.68874e-310.
colvars: Re-initialized atom group for variable "cn_fe_o":0/1. 56 atoms: total mass = 895.944, total charge = 4.00775.
colvars: The restart output state file will be "rest.colvars.state".
colvars: The final output state file will be "out.colvars.state".
Per MPI rank memory allocation (min/avg/max) = 3.139 | 3.164 | 3.181 Mbytes
   Step          Temp         c_mTemp         PotEng         KinEng         TotEng         Press     
         0   150.40208      298.15        -2337.9556      6.5516151     -2331.404      -12354.234    
        50   174.75435      346.42479     -2339.0148      7.6124162     -2331.4023     -10587.611    
       100   178.86315      354.56989     -2339.1999      7.7913983     -2331.4085     -13021.275    
       150   166.15314      329.37416     -2338.6562      7.2377417     -2331.4184     -12228.65     
       200   152.15777      301.63041     -2338.0477      6.6280943     -2331.4196     -7723.5776    
       250   149.77035      296.89769     -2337.9499      6.5240964     -2331.4258     -13627.48     
       300   168.02346      333.0818      -2338.7575      7.3192143     -2331.4383     -10070.995    
       350   162.63924      322.40838     -2338.3531      7.0846742     -2331.2684     -13979.905    
       400   158.80438      314.80633     -2338.1937      6.9176249     -2331.2761     -13914.894    
       450   171.96407      340.89348     -2338.7741      7.4908699     -2331.2832     -12588.553    
       500   165.3966       327.87444     -2338.4821      7.2047867     -2331.2773     -13600.017    
       550   154.8517       306.97073     -2338.0302      6.7454437     -2331.2847     -10787.296    
       600   158.76337      314.72502     -2338.2172      6.9158384     -2331.3013     -11422.844    
       650   169.27609      335.56495     -2338.686       7.3737797     -2331.3122     -12816.689    
       700   166.65332      330.3657      -2338.5872      7.25953       -2331.3277     -9940.5567    
       750   167.33264      331.71234     -2338.624       7.2891215     -2331.3349     -15283.471    
       800   159.37829      315.94402     -2338.2964      6.9426249     -2331.3537     -13879.536    
       850   161.98022      321.10197     -2338.4298      7.0559667     -2331.3739     -11076.85     
       900   158.15479      313.51862     -2338.2739      6.8893285     -2331.3846     -11556.354    
       950   150.77379      298.88686     -2337.9746      6.5678069     -2331.4067     -13825.6      
      1000   154.82414      306.91608     -2338.1664      6.7442429     -2331.4221     -14854.75     
      1050   155.39932      308.0563      -2338.2062      6.7692984     -2331.4369     -16607.72     
      1100   148.05686      293.50096     -2337.9019      6.449456      -2331.4525     -10933.245    
      1150   155.71317      308.67847     -2338.2459      6.78297       -2331.4629     -12290.954    
      1200   161.01121      319.18106     -2338.4872      7.0137562     -2331.4734     -12869        
      1250   153.26845      303.83217     -2338.1591      6.6764763     -2331.4826     -13297.529    
      1300   141.0512       279.61325     -2337.6456      6.1442844     -2331.5013     -12415.597    
      1350   159.89908      316.9764      -2338.4909      6.9653107     -2331.5256     -15098.6      
      1400   156.79863      310.83022     -2338.3723      6.830253      -2331.5421     -13992.501    
      1450   154.08946      305.45969     -2338.2675      6.7122399     -2331.5553     -11209.084    
      1500   140.84223      279.19901     -2337.7152      6.1351818     -2331.58       -13344.812    
      1550   152.55931      302.42639     -2338.244       6.6455854     -2331.5984     -10740.455    
      1600   150.38397      298.1141      -2338.1735      6.5508263     -2331.6227     -10370.822    
      1650   160.31707      317.80502     -2338.6326      6.9835189     -2331.6491     -13800.337    
      1700   155.00018      307.26507     -2338.4305      6.7519116     -2331.6786     -11201.154    
      1750   160.92304      319.00626     -2338.7131      7.0099152     -2331.7032     -11845.824    
      1800   159.38426      315.95585     -2338.6699      6.9428848     -2331.727      -11477.231    
      1850   144.21032      285.87575     -2337.708       6.2818979     -2331.4261     -9407.6973    
      1900   133.9131       265.46303     -2337.2801      5.8333442     -2331.4468     -10663.112    
      1950   146.92106      291.24939     -2337.8652      6.3999795     -2331.4652     -13227.509    
      2000   162.50482      322.14191     -2338.5677      7.0788188     -2331.4888     -14015.217    
      2050   183.38599      363.53575     -2339.5008      7.9884163     -2331.5124     -10856.793    
      2100   167.63728      332.31626     -2338.8345      7.3023922     -2331.5321     -11591.572    
      2150   187.88992      372.46413     -2339.7466      8.1846104     -2331.562      -11650.596    
      2200   188.85479      374.37685     -2339.8249      8.2266411     -2331.5983     -10731.585    
      2250   179.41007      355.65407     -2339.4413      7.8152225     -2331.6261     -15080.12     
      2300   176.88597      350.65043     -2339.3716      7.7052713     -2331.6663     -11783.641    
      2350   185.70462      368.13209     -2339.8036      8.0894173     -2331.7142     -9347.0836    
      2400   173.23273      343.4084      -2339.2949      7.5461334     -2331.7487     -13925.357    
      2450   155.83428      308.91855     -2338.5672      6.7882456     -2331.7789     -11861.395    
      2500   170.91703      338.81787     -2339.2591      7.4452599     -2331.8138     -10239.875    
      2550   173.62869      344.19334     -2339.4163      7.5633818     -2331.8529     -12090.332    
      2600   166.79316      330.64292     -2339.1511      7.2656217     -2331.8855     -15102.72     
      2650   174.95593      346.8244      -2339.5497      7.6211973     -2331.9285     -11318.554    
      2700   177.87581      352.61263     -2339.7138      7.7483892     -2331.9654     -12186.35     
      2750   165.03845      327.16445     -2339.1924      7.1891852     -2332.0032     -10541.754    
      2800   172.11558      341.19383     -2339.5406      7.4974699     -2332.0431     -12080.299    
      2850   181.12449      359.05266     -2339.9779      7.8899037     -2332.088      -8062.7093    
      2900   162.11603      321.37119     -2339.1837      7.0618827     -2332.1218     -12798.901    
      2950   173.4817       343.90196     -2339.7158      7.5569789     -2332.1588     -10175.782    
      3000   160.48494      318.1378      -2339.1938      6.9908314     -2332.203      -12026.022    
      3050   162.08707      321.31377     -2339.3008      7.0606211     -2332.2402     -11475.058    
      3100   168.8459       334.71217     -2339.6308      7.3550404     -2332.2758     -13138.302    
      3150   173.79367      344.5204      -2339.8738      7.5705687     -2332.3032     -12534.745    
      3200   173.73545      344.40497     -2339.91        7.5680322     -2332.342      -13541.029    
      3250   161.85182      320.84743     -2339.4168      7.0503736     -2332.3664     -12942.449    
      3300   177.27116      351.414       -2340.1132      7.7220501     -2332.3911     -9257.6988    
      3350   177.53016      351.92744     -2340.1563      7.7333326     -2332.4229     -14194.917    
      3400   160.29881      317.76881     -2339.4305      6.9827233     -2332.4477     -14755.61     
      3450   154.57009      306.41247     -2339.2083      6.7331765     -2332.4751     -10832.486    
      3500   165.53701      328.15278     -2339.7142      7.2109029     -2332.5033     -12280.302    
      3550   163.96408      325.03468     -2339.6739      7.142385      -2332.5315     -13589.97     
      3600   153.80927      304.90427     -2339.2495      6.7000349     -2332.5495     -13399.464    
      3650   159.65978      316.50203     -2339.5321      6.9548868     -2332.5772     -11645.376    
      3700   156.20474      309.65294     -2339.3984      6.8043832     -2332.594      -13488.455    
      3750   153.7293       304.74573     -2339.3103      6.6965511     -2332.6138     -11073.624    
      3800   156.41105      310.0619      -2339.4487      6.8133698     -2332.6353     -10738.333    
      3850   161.65302      320.45334     -2339.6944      7.0417137     -2332.6527     -12521.926    
      3900   165.48744      328.05452     -2339.8832      7.2087436     -2332.6745     -11728.155    
      3950   160.83248      318.82673     -2339.6976      7.0059702     -2332.6917     -14250.816    
      4000   166.75479      330.56685     -2339.9734      7.2639503     -2332.7095     -11983.411    
      4050   165.16103      327.40746     -2339.9254      7.194525      -2332.7309     -15065.993    
      4100   167.17948      331.40874     -2340.0316      7.2824501     -2332.7491     -11477.151    
      4150   166.08463      329.23835     -2340.0026      7.2347575     -2332.7678     -10986.02     
      4200   168.95932      334.93701     -2340.1525      7.3599811     -2332.7925     -14749.42     
      4250   158.90969      315.01509     -2339.7324      6.9222124     -2332.8102     -11945.63     
      4300   171.90865      340.78361     -2340.3032      7.4884556     -2332.8148     -13962.138    
      4350   156.60448      310.44536     -2339.6469      6.821796      -2332.8251     -15054.224    
      4400   158.38169      313.96841     -2339.7373      6.8992123     -2332.8381     -11940.817    
      4450   161.56773      320.28427     -2339.9011      7.0379985     -2332.8631     -9613.805     
      4500   161.48985      320.12987     -2339.9073      7.0346057     -2332.8727     -19416.248    
      4550   161.44222      320.03546     -2339.928       7.0325311     -2332.8954     -15378.742    
      4600   181.22321      359.24837     -2340.8121      7.8942044     -2332.9179     -11521.728    
      4650   161.2142       319.58345     -2339.9527      7.0225986     -2332.9301     -11402.163    
      4700   166.00255      329.07564     -2340.1932      7.2311821     -2332.962      -13487.156    
      4750   168.47368      333.9743      -2340.3181      7.3388264     -2332.9793     -13533.229    
      4800   162.15417      321.44681     -2340.0594      7.0635443     -2332.9959     -11826.786    
      4850   161.91776      320.97814     -2340.0747      7.0532458     -2333.0215     -10958.4      
      4900   157.94387      313.10049     -2339.9249      6.8801404     -2333.0448     -11497.497    
      4950   176.46779      349.82144     -2340.753       7.687055      -2333.066      -9690.4167    
      5000   168.42925      333.88621     -2340.4221      7.3368907     -2333.0852     -14428.79     
      5050   165.69223      328.46047     -2340.3319      7.2176642     -2333.1142     -11729.232    
      5100   169.19546      335.40512     -2340.5003      7.3702674     -2333.13       -11340.106    
      5150   171.21786      339.41423     -2340.6195      7.4583646     -2333.1612     -12078.899    
      5200   159.34703      315.88205     -2340.1265      6.9412631     -2333.1852     -11009.412    
      5250   157.27976      311.784       -2340.0646      6.8512117     -2333.2134     -9687.7788    
      5300   175.74995      348.39844     -2340.8903      7.6557856     -2333.2346     -13366.391    
      5350   165.5042       328.08773     -2340.4681      7.2094735     -2333.2586     -12734.635    
      5400   161.74907      320.64375     -2340.3308      7.0458977     -2333.2849     -10739.669    
      5450   167.17268      331.39526     -2340.5959      7.2821539     -2333.3138     -15645.077    
      5500   157.63621      312.4906      -2340.2119      6.8667387     -2333.3451     -11330.156    
      5550   170.51254      338.01604     -2340.7995      7.4276403     -2333.3719     -8809.6698    
      5600   163.61528      324.34323     -2340.524       7.1271911     -2333.3968     -15263.698    
      5650   176.19166      349.27406     -2341.1067      7.6750268     -2333.4317     -11598.668    
      5700   181.21044      359.22304     -2341.3533      7.8936479     -2333.4597     -11329.786    
      5750   175.81428      348.52595     -2341.1555      7.6585875     -2333.4969     -12527.983    
      5800   180.76822      358.34642     -2341.4106      7.8743847     -2333.5362     -13457.935    
      5850   171.85846      340.68412     -2341.0437      7.4862694     -2333.5574     -12072.356    
      5900   173.95325      344.83674     -2341.1698      7.5775199     -2333.5923     -12598.263    
      5950   161.2295       319.61377     -2340.648       7.0232647     -2333.6248     -12240.393    
      6000   168.3821       333.79274     -2341.0008      7.3348367     -2333.6659     -13251.122    
      6050   156.65783      310.55111     -2340.5105      6.8241199     -2333.6864     -16247.267    
      6100   165.58772      328.2533      -2340.9383      7.2131118     -2333.7252     -12429.994    
      6150   152.74501      302.79452     -2340.405       6.6536748     -2333.7513     -13790.593    
      6200   160.2664       317.70457     -2340.7707      6.9813116     -2333.7894     -13050.834    
      6250   159.21875      315.62775     -2340.7564      6.9356752     -2333.8207     -12249.059    
      6300   154.19834      305.67553     -2340.567       6.7169828     -2333.85       -16532.143    
      6350   172.30318      341.56572     -2341.3955      7.5056419     -2333.8899     -12463.961    
      6400   162.0519       321.24406     -2340.9823      7.0590892     -2333.9232     -15450.018    
      6450   170.14311      337.28369     -2341.3734      7.4115476     -2333.9618     -11456.047    
      6500   172.73012      342.41206     -2341.524       7.5242394     -2333.9997     -12278.779    
      6550   151.42122      300.1703      -2340.6212      6.5960097     -2334.0252     -11058.159    
      6600   161.96046      321.0628      -2341.107       7.0551062     -2334.0519     -12404.743    
      6650   170.51851      338.02787     -2341.5099      7.4279004     -2334.082      -15024.282    
      6700   155.14183      307.54587     -2340.8701      6.7580819     -2334.112      -14192.464    
      6750   154.93527      307.13639     -2340.8884      6.7490841     -2334.1394     -10450.355    
      6800   159.93832      317.05419     -2341.146       6.96702       -2334.1789     -10271.152    
      6850   168.38871      333.80585     -2341.5493      7.3351247     -2334.2142     -11625.923    
      6900   157.36642      311.95578     -2341.1061      6.8549864     -2334.2511     -12877.754    
      6950   173.35392      343.64866     -2341.8276      7.5514129     -2334.2762     -11901.294    
      7000   178.56356      353.976       -2342.0933      7.778348      -2334.315      -12656.257    
      7050   169.75991      336.52405     -2341.7408      7.3948551     -2334.3459     -15206.708    
      7100   167.38687      331.81986     -2341.6659      7.291484      -2334.3744     -10146.731    
      7150   180.95408      358.71485     -2342.2825      7.8824806     -2334.4        -15072.8      
      7200   173.85696      344.64585     -2342.0116      7.5733254     -2334.4383     -12868.079    
      7250   160.95934      319.07822     -2341.4847      7.0114966     -2334.4732     -10127.586    
      7300   160.26846      317.70866     -2341.4832      6.9814015     -2334.5018     -15192.103    
      7350   162.46978      322.07245     -2341.6098      7.0772924     -2334.5326     -11791.409    
      7400   166.80255      330.66153     -2341.8417      7.2660306     -2334.5756     -10172.676    
      7450   182.45341      361.68706     -2342.559       7.9477926     -2334.6112     -13741.942    
      7500   188.37666      373.42903     -2342.8544      8.2058135     -2334.6486     -12515.124    
      7550   161.91234      320.96741     -2341.7328      7.05301       -2334.6798     -8045.2096    
      7600   165.06145      327.21005     -2341.9002      7.1901871     -2334.71       -12006.933    
      7650   168.08598      333.20573     -2342.0683      7.3219376     -2334.7463     -12024.939    
      7700   178.83786      354.51977     -2342.5749      7.790297      -2334.7846     -11794.475    
      7750   155.98033      309.20807     -2341.6104      6.7946076     -2334.8158     -8089.3633    
      7800   161.56683      320.28249     -2341.8894      7.0379593     -2334.8514     -9508.7574    
      7850   163.4041       323.9246      -2342.0097      7.1179918     -2334.8917     -12345.319    
      7900   153.10157      303.50135     -2341.5871      6.6692069     -2334.9179     -9157.284     
      7950   153.92974      305.14306     -2341.6541      6.7052822     -2334.9489     -10199.253    
      8000   165.68389      328.44396     -2342.1954      7.2173013     -2334.9781     -11016.68     
      8050   174.01985      344.96875     -2342.5983      7.5804209     -2335.0179     -12877.5      
      8100   157.99354      313.19896     -2341.9201      6.8823043     -2335.0378     -11976.349    
      8150   165.2149       327.51423     -2342.271       7.1968714     -2335.0741     -14033.801    
      8200   156.98828      311.20617     -2341.9465      6.8385143     -2335.108      -14436.73     
      8250   157.70285      312.6227      -2342.0083      6.8696415     -2335.1387     -13994.888    
      8300   160.93725      319.03443     -2342.1765      7.0105342     -2335.166      -13328.553    
      8350   153.58082      304.45139     -2341.8948      6.6900833     -2335.2047     -13074.251    
      8400   152.32889      301.96963     -2341.8634      6.6355485     -2335.2278     -11154.833    
      8450   158.18044      313.56946     -2342.1465      6.8904458     -2335.256      -13699.382    
      8500   149.71271      296.78343     -2341.8009      6.5215857     -2335.2793     -13060.004    
      8550   147.12527      291.6542      -2341.7164      6.408875      -2335.3075     -11974.483    
      8600   144.21908      285.89311     -2341.6147      6.2822794     -2335.3324     -13956.544    
      8650   150.41458      298.17478     -2341.9155      6.5521597     -2335.3633     -12873.339    
      8700   151.78724      300.89588     -2341.987       6.6119537     -2335.375      -16785.772    
      8750   152.64052      302.58738     -2342.0407      6.649123      -2335.3916     -15979.79     
      8800   170.12549      337.24877     -2342.8346      7.4107803     -2335.4238     -13868.462    
      8850   161.70965      320.5656      -2342.4852      7.0441805     -2335.441      -13153.698    
      8900   157.75062      312.7174      -2342.3318      6.8717224     -2335.4601     -16137.078    
      8950   167.22921      331.50731     -2342.7673      7.2846162     -2335.4827     -10340.902    
      9000   152.26561      301.84419     -2342.1331      6.632792      -2335.5003     -11544.593    
      9050   154.78843      306.8453      -2342.2749      6.7426875     -2335.5322     -13497.64     
      9100   151.02175      299.37841     -2342.1363      6.5786083     -2335.5577     -9946.6958    
      9150   160.76105      318.68515     -2342.576       7.002859      -2335.5731     -12216.408    
      9200   157.30421      311.83247     -2342.4495      6.8522767     -2335.5972     -14938.847    
      9250   152.5969       302.50091     -2342.263       6.6472229     -2335.6158     -10529.221    
      9300   151.76722      300.8562      -2342.2461      6.6110818     -2335.635      -11538.079    
      9350   146.72         290.85082     -2342.0437      6.3912212     -2335.6525     -9837.8972    
      9400   154.48785      306.24945     -2342.3997      6.7295941     -2335.6701     -11281.66     
      9450   160.40486      317.97904     -2342.6814      6.9873429     -2335.6941     -10295.946    
      9500   163.97725      325.06079     -2342.86        7.1429588     -2335.7171     -10775.975    
      9550   156.99774      311.22494     -2342.5734      6.8389268     -2335.7345     -11293.263    
      9600   142.06815      281.62921     -2341.9438      6.1885834     -2335.7552     -8949.6709    
      9650   148.63611      294.64923     -2342.2511      6.4746884     -2335.7764     -14508.671    
      9700   150.95323      299.24258     -2342.3681      6.5756237     -2335.7924     -11464.196    
      9750   146.86978      291.14775     -2342.2264      6.397746      -2335.8287     -10631.277    
      9800   156.52526      310.28832     -2342.6682      6.8183452     -2335.8498     -14198.402    
      9850   151.4887       300.30406     -2342.4601      6.5989489     -2335.8611     -10730.643    
      9900   162.07459      321.28904     -2342.9423      7.0600775     -2335.8822     -10948.573    
      9950   151.73481      300.79195     -2342.5084      6.6096698     -2335.8987     -13577.096    
     10000   146.66191      290.73568     -2342.2996      6.3886911     -2335.9109     -10976.364    
     10050   160.59055      318.34715     -2342.934       6.9954318     -2335.9385     -10854.898    
     10100   146.6341       290.68054     -2342.3447      6.3874795     -2335.9572     -8919.5325    
     10150   139.16535      275.87485     -2342.0311      6.0621359     -2335.969      -10171.983    
     10200   156.98546      311.20059     -2342.831       6.8383916     -2335.9927     -14257.691    
     10250   151.25731      299.84537     -2342.5997      6.5888696     -2336.0109     -12133.639    
     10300   144.26584      285.9858      -2342.3181      6.2843163     -2336.0338     -11804.063    
     10350   158.09295      313.39603     -2342.9375      6.8866347     -2336.0509     -15965.78     
     10400   158.28441      313.77556     -2342.9629      6.8949747     -2336.0679     -9679.5768    
     10450   148.4993       294.37802     -2342.5559      6.4687288     -2336.0872     -13922.495    
     10500   149.98938      297.33189     -2342.6402      6.5336378     -2336.1065     -13451.644    
     10550   147.3123       292.02496     -2342.5333      6.4170221     -2336.1162     -11186.544    
     10600   135.13117      267.87767     -2342.0117      5.8864041     -2336.1253     -14273.863    
     10650   141.97129      281.4372      -2342.3329      6.1843642     -2336.1485     -13717.796    
     10700   155.16297      307.58777     -2342.9294      6.7590027     -2336.1704     -13844.536    
     10750   142.39728      282.28166     -2342.3788      6.2029207     -2336.1759     -10599.162    
     10800   144.5042       286.45833     -2342.494       6.2946997     -2336.1993     -13291.261    
     10850   129.43363      256.58313     -2341.8415      5.6382154     -2336.2033     -11932.086    
     10900   140.196        277.91795     -2342.3271      6.1070315     -2336.22       -13680.579    
     10950   150.13596      297.62246     -2342.781       6.5400228     -2336.241      -13858.825    
     11000   157.2744       311.77337     -2343.106       6.8509781     -2336.255      -12086.293    
     11050   143.27165      284.01498     -2342.4944      6.241009      -2336.2534     -11309.315    
     11100   152.86669      303.03574     -2342.9339      6.6589753     -2336.2749     -12574.255    
     11150   148.11739      293.62094     -2342.7416      6.4520925     -2336.2895     -12518.336    
     11200   153.15314      303.60358     -2342.9788      6.6714532     -2336.3074     -11447.953    
     11250   167.1522       331.35465     -2343.5991      7.2812614     -2336.3178     -10556.662    
     11300   157.31526      311.85436     -2343.1834      6.8527578     -2336.3306     -13404.747    
     11350   145.08814      287.61589     -2342.6662      6.3201362     -2336.346      -11045.75     
     11400   138.62594      274.80554     -2342.3971      6.0386387     -2336.3585     -11622.086    
     11450   169.25583      335.5248      -2343.7571      7.3728974     -2336.3842     -13252.36     
     11500   145.5158       288.46367     -2342.7302      6.3387656     -2336.3914     -13232.878    
     11550   143.55556      284.57779     -2342.6591      6.2533764     -2336.4057     -11546.555    
     11600   143.1368       283.74765     -2342.6517      6.2351346     -2336.4166     -12954.669    
     11650   133.57516      264.79312     -2342.2436      5.8186234     -2336.425      -11056.09     
     11700   139.00186      275.55074     -2342.4971      6.0550138     -2336.4421     -10983.952    
     11750   137.42631      272.42744     -2342.4367      5.9863818     -2336.4503     -14408.473    
     11800   135.30618      268.2246      -2342.3606      5.8940276     -2336.4666     -10511.756    
     11850   134.31292      266.25561     -2342.3341      5.8507605     -2336.4833     -12116.183    
     11900   137.78938      273.14719     -2342.5018      6.0021977     -2336.4996     -9687.0853    
     11950   138.9813       275.50999     -2342.5648      6.0541183     -2336.5107     -13815.698    
     12000   145.31559      288.0668      -2342.8494      6.3300445     -2336.5194     -11946.696    
     12050   141.08988      279.68994     -2342.612       6.1459696     -2336.4661     -15704.467    
     12100   135.42751      268.46511     -2342.3762      5.8993127     -2336.4769     -10822.102    
     12150   145.09159      287.62274     -2342.8105      6.3202868     -2336.4902     -9402.0208    
     12200   140.94149      279.39578     -2342.6321      6.1395056     -2336.4926     -14252.992    
     12250   146.46057      290.33653     -2342.8819      6.3799202     -2336.502      -14488.23     
     12300   132.3703       262.40466     -2342.2725      5.7661389     -2336.5064     -11713.633    
     12350   152.01955      301.3564      -2343.1361      6.6220732     -2336.5141     -14040.042    
     12400   152.38524      302.08132     -2343.1608      6.6380028     -2336.5228     -11992.947    
     12450   150.54853      298.44032     -2343.1009      6.5579946     -2336.5429     -11032.202    
     12500   142.82983      283.13914     -2342.7665      6.221763      -2336.5447     -10753.066    
     12550   142.77301      283.0265      -2342.7739      6.2192879     -2336.5547     -11923.476    
     12600   137.11738      271.81504     -2342.5202      5.9729247     -2336.5473     -18168.406    
     12650   133.37947      264.40519     -2342.3793      5.810099      -2336.5692     -14879.391    
     12700   152.1464       301.60787     -2343.2069      6.627599      -2336.5793     -13204.327    
     12750   155.56452      308.38379     -2343.3611      6.7764946     -2336.5846     -12584.957    
     12800   142.52367      282.53221     -2342.7975      6.2084262     -2336.5891     -10718.692    
     12850   136.59825      270.78594     -2342.546       5.9503112     -2336.5957     -10828.136    
     12900   141.01558      279.54265     -2342.7368      6.1427331     -2336.5941     -13772.919    
     12950   147.10321      291.61049     -2343.0082      6.4079144     -2336.6003     -15878.116    
     13000   145.09756      287.63457     -2342.9367      6.3205467     -2336.6161     -9306.2264    
     13050   142.21991      281.93005     -2342.8134      6.1951943     -2336.6182     -11850.179    
     13100   130.22401      258.14996     -2342.2885      5.6726452     -2336.6159     -14943.307    
     13150   156.19995      309.64343     -2343.3999      6.8041743     -2336.5958     -9283.6628    
     13200   147.37152      292.14236     -2343.0179      6.4196018     -2336.5983     -16104.948    
     13250   144.49361      286.43733     -2342.9003      6.2942383     -2336.606      -10926.071    
     13300   158.20242      313.61304     -2343.5079      6.8914034     -2336.6165     -10683.509    
     13350   144.63114      286.70997     -2342.9069      6.3002293     -2336.6067     -14616.792    
     13400   143.20302      283.87892     -2342.852       6.2380192     -2336.614      -12797.152    
     13450   144.87859      287.20049     -2342.9334      6.3110081     -2336.6223     -10730.023    
     13500   145.70747      288.84364     -2342.9604      6.3471149     -2336.6133     -11945.929    
     13550   149.38534      296.13447     -2343.1304      6.5073253     -2336.6231     -14369.528    
     13600   136.69595      270.97962     -2342.5733      5.9545671     -2336.6188     -9205.8147    
     13650   150.4317       298.20872     -2343.1759      6.5529053     -2336.623      -12274.59     
     13700   149.10305      295.57488     -2343.1242      6.4950288     -2336.6292     -11748.688    
     13750   146.82678      291.06251     -2343.0246      6.3958729     -2336.6287     -11654.44     
     13800   146.9571       291.32084     -2343.0361      6.4015495     -2336.6346     -14107.566    
     13850   141.71084      280.9209      -2342.8082      6.173019      -2336.6352     -13031.267    
     13900   154.46864      306.21135     -2343.3637      6.7287571     -2336.6349     -10233.532    
     13950   144.58811      286.62467     -2342.9272      6.2983549     -2336.6288     -12028.255    
     14000   145.13537      287.70953     -2342.9538      6.3221938     -2336.6316     -11944.511    
     14050   138.78874      275.12828     -2342.6729      6.0457306     -2336.6272     -12907.205    
     14100   156.61083      310.45793     -2343.453       6.8220724     -2336.6309     -11164.054    
     14150   147.94106      293.27139     -2343.0685      6.4444114     -2336.6241     -9903.6831    
     14200   144.38411      286.22026     -2342.9181      6.2894683     -2336.6287     -11328.672    
     14250   144.96813      287.37799     -2342.9444      6.3149086     -2336.6295     -11057.637    
     14300   147.79089      292.97371     -2343.0673      6.4378702     -2336.6294     -10117.272    
     14350   162.69046      322.50991     -2343.7229      7.0869053     -2336.636      -10969.207    
     14400   144.82367      287.09163     -2342.9323      6.308616      -2336.6237     -11488.889    
     14450   151.29056      299.91129     -2343.2218      6.5903181     -2336.6315     -11166.082    
     14500   146.04132      289.50545     -2342.9892      6.3616577     -2336.6276     -13107.296    
     14550   145.33407      288.10341     -2342.9579      6.3308491     -2336.627      -10413.907    
     14600   144.69425      286.83508     -2342.9172      6.3029785     -2336.6142     -12185.647    
     14650   153.78321      304.8526      -2343.3248      6.6988995     -2336.6259     -11764.343    
     14700   135.52127      268.65099     -2342.5264      5.9033973     -2336.623      -9725.9064    
     14750   151.72583      300.77415     -2343.2314      6.6092788     -2336.6221     -13882.138    
     14800   152.46513      302.2397      -2343.2593      6.6414831     -2336.6178     -11754.346    
     14850   149.26433      295.89458     -2343.1159      6.502054      -2336.6138     -15390.615    
     14900   143.79674      285.0559      -2342.8784      6.2638823     -2336.6145     -11671.579    
     14950   151.60606      300.53672     -2343.2172      6.6040615     -2336.6131     -12508.784    
     15000   149.20132      295.76967     -2343.108       6.4993091     -2336.6087     -11412.005    
     15050   144.36903      286.19037     -2342.9001      6.2888116     -2336.6113     -11234.023    
     15100   147.09908      291.6023      -2343.0112      6.4077344     -2336.6035     -13834.587    
     15150   155.3466       307.95179     -2343.3551      6.7670018     -2336.5881     -12172.68     
     15200   144.90311      287.24911     -2342.9051      6.3120764     -2336.593      -9234.2611    
     15250   152.39082      302.09238     -2343.2258      6.6382459     -2336.5875     -10453.723    
     15300   149.47611      296.31442     -2343.079       6.5112795     -2336.5678     -15024.041    
     15350   139.07977      275.70519     -2342.6214      6.0584079     -2336.563      -13565.986    
     15400   141.09783      279.7057      -2342.7059      6.1463159     -2336.5596     -14726.494    
     15450   148.91622      295.20451     -2343.0425      6.4868901     -2336.5557     -11927.346    
     15500   150.29217      297.93213     -2343.0958      6.5468275     -2336.549      -11846.599    
     15550   152.15276      301.62047     -2343.162       6.627876      -2336.5342     -14106.497    
     15600   143.942        285.34385     -2342.7954      6.2702098     -2336.5252     -12246.799    
     15650   138.91223      275.37308     -2342.4297      6.0511098     -2336.3786     -11506.231    
     15700   139.99719      277.52384     -2342.4679      6.0983711     -2336.3695     -13227.287    
     15750   139.14082      275.82621     -2342.4123      6.0610672     -2336.3512     -11360.509    
     15800   149.97457      297.30254     -2342.9002      6.5329928     -2336.3672     -9416.3719    
     15850   139.62649      276.78898     -2342.4215      6.0822231     -2336.3393     -12225.793    
     15900   150.15458      297.65936     -2342.8779      6.5408337     -2336.3371     -10326.089    
     15950   151.89454      301.1086      -2342.9387      6.6166279     -2336.3221     -12132.453    
     16000   146.25258      289.92424     -2342.6841      6.3708604     -2336.3132     -12560.891    
     16050   154.11786      305.51599     -2342.8009      6.713477      -2336.0874     -11445.214    
     16100   145.61025      288.65091     -2342.4157      6.3428799     -2336.0728     -12014.398    
     16150   169.89587      336.79358     -2343.4703      7.4007777     -2336.0695     -13471.089    
     16200   148.57658      294.53122     -2342.5853      6.4720951     -2336.1132     -12931.986    
     16250   146.58532      290.58385     -2342.4115      6.3853548     -2336.0261     -11965.085    
     16300   148.80857      294.99111     -2342.4936      6.4822008     -2336.0114     -14083.267    
     16350   161.90005      320.94304     -2343.0515      7.0524744     -2335.999      -11334.572    
     16400   155.9412       309.13049     -2342.8025      6.7929028     -2336.0096     -10723.688    
     16450   160.25312      317.67824     -2342.9563      6.980733      -2335.9756     -11253.005    
     16500   157.68899      312.59523     -2342.8361      6.8690377     -2335.9671     -13212.469    
     16550   160.79083      318.74418     -2342.9503      7.0041562     -2335.9461     -11066.154    
     16600   155.81075      308.87189     -2342.724       6.7872204     -2335.9368     -11496.552    
     16650   145.49767      288.42773     -2342.2543      6.3379757     -2335.9163     -12334.04     
     16700   148.57328      294.52468     -2342.3759      6.4719515     -2335.9039     -11353.318    
     16750   155.73729      308.72627     -2342.712       6.7840204     -2335.928      -11459.325    
     16800   160.18347      317.54017     -2342.8937      6.977699      -2335.916      -14617.998    
     16850   156.89701      311.02525     -2342.5592      6.8345388     -2335.7246     -10684.666    
     16900   158.43756      314.07915     -2342.619       6.9016459     -2335.7174     -12661.027    
     16950   156.35541      309.95161     -2342.5053      6.8109463     -2335.6943     -12027.146    
     17000   156.41217      310.06413     -2342.4949      6.8134188     -2335.6815     -15259.467    
     17050   152.45707      302.22371     -2342.3054      6.6411318     -2335.6642     -12258.572    
     17100   153.8944       305.07301     -2342.3467      6.7037429     -2335.643      -12485.746    
     17150   152.7139       302.73285     -2342.2739      6.6523197     -2335.6216     -12674.232    
     17200   138.69079      274.9341      -2341.6358      6.0414638     -2335.5943     -14269.162    
     17250   148.28927      293.96167     -2342.0462      6.4595798     -2335.5866     -12599.051    
     17300   157.76056      312.7371      -2342.453       6.8721553     -2335.5808     -11332.062    
     17350   153.31988      303.93411     -2342.2416      6.6787163     -2335.5629     -12758.847    
     17400   168.38822      333.80488     -2342.8879      7.3351035     -2335.5528     -15355.83     
     17450   163.34302      323.80352     -2342.5448      7.1153314     -2335.4295     -11195.069    
     17500   167.75532      332.55024     -2342.4071      7.3075338     -2335.0995     -11109.702    
     17550   161.86593      320.87541     -2342.1379      7.0509884     -2335.0869     -12261.816    
     17600   159.73869      316.65847     -2342.0303      6.9583243     -2335.0719     -9173.9528    
     17650   175.11315      347.13608     -2342.6803      7.6280461     -2335.0522     -11677.508    
     17700   169.55812      336.12404     -2342.7254      7.3860653     -2335.3393     -12073.3      
     17750   164.85547      326.80172     -2342.4602      7.1812145     -2335.279      -12197.738    
     17800   162.09747      321.3344      -2342.3244      7.0610744     -2335.2633     -16087.735    
     17850   171.99085      340.94657     -2342.7515      7.4920365     -2335.2594     -9207.249     
     17900   166.84589      330.74744     -2342.513       7.2679186     -2335.2451     -11944.428    
     17950   159.40298      315.99298     -2342.1706      6.9437006     -2335.2269     -11799.865    
     18000   161.83559      320.81525     -2342.2708      7.0496664     -2335.2211     -15160.036    
     18050   147.67083      292.73571     -2341.6328      6.4326403     -2335.2002     -11459.029    
     18100   150.59784      298.53807     -2341.751       6.5601425     -2335.1909     -10509.766    
     18150   159.72778      316.63683     -2342.145       6.9578487     -2335.1871     -11811.322    
     18200   166.46142      329.98528     -2342.4707      7.2511706     -2335.2196     -12537.283    
     18250   161.02666      319.21166     -2342.1734      7.0144288     -2335.159      -11163.074    
     18300   172.44996      341.85669     -2342.6608      7.5120357     -2335.1487     -13540.291    
     18350   163.42333      323.96271     -2342.0828      7.1188294     -2334.964      -8524.1052    
     18400   149.87526      297.10566     -2341.3919      6.5286666     -2334.8633     -9760.627     
     18450   156.08918      309.42385     -2341.6528      6.7993493     -2334.8535     -9956.9369    
     18500   168.22172      333.47482     -2342.1781      7.3278505     -2334.8502     -12758.768    
     18550   179.5668       355.96478     -2342.7832      7.82205       -2334.9611     -10816.603    
     18600   167.72579      332.4917      -2342.3355      7.3062474     -2335.0293     -9872.9073    
     18650   154.42203      306.11896     -2341.7614      6.7267268     -2335.0347     -12905.546    
     18700   151.48333      300.29342     -2341.6118      6.5987151     -2335.0131     -13456.318    
     18750   147.99654      293.38137     -2341.4704      6.4468282     -2335.0236     -10967.213    
     18800   172.19258      341.34648     -2342.519       7.5008241     -2335.0181     -13762.729    
     18850   163.75219      324.61464     -2342.1361      7.1331551     -2335.003      -10043.525    
     18900   155.25313      307.76649     -2341.6239      6.76293       -2334.861      -11010.169    
     18950   171.84303      340.65353     -2342.352       7.4855972     -2334.8664     -10649.41     
     19000   155.84694      308.94364     -2341.6323      6.788797      -2334.8435     -13436.881    
     19050   163.29264      323.70365     -2341.9556      7.1131367     -2334.8424     -13499.484    
     19100   162.52014      322.17228     -2341.9284      7.079486      -2334.8489     -12235.45     
     19150   156.21521      309.67368     -2341.6469      6.8048391     -2334.842      -10115.309    
     19200   149.43531      296.23352     -2341.3476      6.5095019     -2334.8381     -9047.9501    
     19250   171.1891       339.35721     -2342.3059      7.4571115     -2334.8487     -13408.607    
     19300   160.88641      318.93364     -2341.859       7.0083194     -2334.8507     -11662.673    
     19350   177.36561      351.60123     -2342.5866      7.7261645     -2334.8604     -11395.997    
     19400   170.47316      337.93796     -2342.3006      7.4259247     -2334.8747     -10386.8      
     19450   153.40638      304.10559     -2341.5624      6.6824845     -2334.88       -13136.555    
     19500   159.87697      316.93259     -2341.8981      6.9643479     -2334.9338     -13993.293    
     19550   183.36495      363.49406     -2342.561       7.9875        -2334.5735     -11261.941    
     19600   163.76464      324.63931     -2341.7113      7.1336972     -2334.5776     -11616.755    
     19650   154.72148      306.71257     -2341.3298      6.7397709     -2334.59       -12710.846    
     19700   159.5078       316.20075     -2341.5516      6.9482664     -2334.6034     -10605.077    
     19750   164.94514      326.97948     -2341.7924      7.1851206     -2334.6072     -10998.037    
     19800   164.34982      325.79935     -2341.8553      7.1591881     -2334.6962     -14116.027    
     19850   173.64717      344.22998     -2342.287       7.5641869     -2334.7228     -10793.82     
     19900   161.90469      320.95224     -2341.7887      7.0526767     -2334.736      -10508.854    
     19950   171.71179      340.39338     -2342.2281      7.4798806     -2334.7482     -13472.937    
     20000   159.54745      316.27937     -2341.7119      6.9499938     -2334.7619     -13208.625    
     20050   173.84774      344.62758     -2341.9867      7.5729239     -2334.4138     -11168.168    
     20100   161.86713      320.87778     -2341.4867      7.0510404     -2334.4356     -12838.085    
     20150   161.37994      319.91199     -2341.4926      7.029818      -2334.4628     -9928.2139    
     20200   164.19591      325.49424     -2341.6446      7.1524836     -2334.4921     -11908.603    
     20250   169.54687      336.10175     -2341.8999      7.3855753     -2334.5143     -14687.046    
     20300   180.31863      357.45516     -2342.4063      7.8548        -2334.5515     -11591.861    
     20350   177.35527      351.58074     -2342.3247      7.7257141     -2334.599      -12714.073    
     20400   155.92361      309.09562     -2341.413       6.7921367     -2334.6208     -12533.625    
     20450   167.68785      332.4165      -2341.9671      7.3045948     -2334.6625     -10275.52     
     20500   159.04819      315.28966     -2341.6152      6.9282457     -2334.687      -14031.163    
     20550   160.44952      318.06757     -2341.7212      6.9892883     -2334.7319     -10470.069    
     20600   169.87914      336.76041     -2342.1597      7.400049      -2334.7596     -9441.1284    
     20650   174.35225      345.62769     -2342.3884      7.5949004     -2334.7935     -9897.083     
     20700   155.4129       308.08322     -2341.6         6.7698899     -2334.8302     -11356.557    
     20750   164.54613      326.18851     -2342.0464      7.1677396     -2334.8786     -13012.512    
     20800   168.82403      334.66881     -2342.2708      7.3540876     -2334.9167     -13228.569    
     20850   166.88457      330.82413     -2342.2248      7.2696037     -2334.9552     -12297.175    
     20900   157.1167       311.46074     -2341.7489      6.8441083     -2334.9048     -12822.769    
     20950   158.33498      313.8758      -2341.8449      6.8971774     -2334.9477     -13346.548    
     21000   154.06364      305.40851     -2341.7148      6.7111152     -2335.0036     -11145.227    
     21050   142.33727      282.1627      -2341.265       6.2003065     -2335.0647     -12716.425    
     21100   154.63067      306.53257     -2341.8418      6.7358155     -2335.1059     -13963.997    
     21150   154.35804      305.99211     -2341.8404      6.7239393     -2335.1165     -10739.374    
     21200   154.57206      306.41638     -2341.8958      6.7332625     -2335.1626     -11176.642    
     21250   156.52935      310.29641     -2341.9988      6.818523      -2335.1803     -10955.026    
     21300   152.50269      302.31416     -2341.8676      6.6431193     -2335.2244     -9282.7257    
     21350   146.33726      290.0921      -2341.6357      6.374549      -2335.2611     -10786.719    
     21400   166.91551      330.88546     -2342.5665      7.2709513     -2335.2955     -12643.715    
     21450   174.71214      346.34112     -2342.9386      7.6105776     -2335.328      -14826.222    
     21500   166.72749      330.51273     -2342.6273      7.2627609     -2335.3645     -12549.818    
     21550   157.47559      312.17219     -2342.2584      6.8597419     -2335.3986     -10694.762    
     21600   153.42652      304.14552     -2342.1226      6.6833619     -2335.4392     -10499.627    
     21650   163.59346      324.29998     -2342.58        7.1262406     -2335.4538     -8654.8832    
     21700   152.17405      301.66267     -2342.1086      6.6288034     -2335.4798     -7803.5313    
     21750   161.0234       319.20521     -2342.5253      7.014287      -2335.511      -10492.625    
     21800   154.6985       306.66703     -2342.2802      6.7387702     -2335.5414     -9996.4906    
     21850   160.15424      317.48223     -2342.4243      6.9764259     -2335.4479     -8540.0995    
     21900   162.48573      322.10407     -2342.5531      7.0779872     -2335.4751     -10373.523    
     21950   148.91258      295.19729     -2341.9833      6.4867317     -2335.4966     -13888.546    
     22000   163.51972      324.15381     -2342.6457      7.1230286     -2335.5227     -14213.984    
     22050   161.2698       319.69367     -2342.5677      7.0250204     -2335.5427     -8827.0192    
     22100   155.17971      307.62096     -2342.3238      6.7597321     -2335.564      -12740.677    
     22150   156.22915      309.70132     -2342.4005      6.8054464     -2335.595      -10792.941    
     22200   157.18789      311.60188     -2342.4646      6.8472096     -2335.6174     -12057.405    
     22250   152.63415      302.57476     -2342.2797      6.6488457     -2335.6308     -9297.4076    
     22300   169.09194      335.19991     -2342.9696      7.3657582     -2335.6038     -12404.99     
     22350   161.59078      320.32995     -2342.5045      7.0390023     -2335.4655     -13853.827    
     22400   152.48992      302.28884     -2342.1289      6.6425628     -2335.4864     -10358.072    
     22450   150.92241      299.18149     -2342.0733      6.5742812     -2335.499      -9170.252     
     22500   157.84775      312.90995     -2342.4513      6.8759535     -2335.5753     -12835.779    
     22550   155.52961      308.31458     -2342.4303      6.7749739     -2335.6554     -11396.159    
     22600   148.85827      295.08963     -2342.1527      6.4843658     -2335.6683     -12335.535    
     22650   165.55934      328.19704     -2342.8982      7.2118754     -2335.6863     -9569.5568    
     22700   153.92751      305.13865     -2342.2953      6.7051852     -2335.5901     -9472.3807    
     22750   147.70403      292.80152     -2342.0556      6.4340864     -2335.6215     -11791.033    
     22800   148.41454      294.21        -2342.0909      6.4650367     -2335.6259     -13458.415    
     22850   146.6848       290.78104     -2342.0334      6.389688      -2335.6437     -10485.085    
     22900   156.84836      310.92881     -2342.4934      6.8324196     -2335.661      -12158.74     
     22950   142.44408      282.37445     -2341.8723      6.2049595     -2335.6673     -12698.855    
     23000   156.14463      309.53377     -2342.4873      6.8017645     -2335.6856     -11224.516    
     23050   159.02884      315.25129     -2342.627       6.9274026     -2335.6996     -7862.0795    
     23100   151.0044       299.34402     -2342.2913      6.5778528     -2335.7135     -13929.682    
     23150   161.77237      320.68994     -2342.7686      7.0469127     -2335.7217     -15407.579    
     23200   152.48681      302.28268     -2342.285       6.6424276     -2335.6426     -9952.4373    
     23250   152.26955      301.85199     -2342.2867      6.6329634     -2335.6537     -11069.016    
     23300   147.80748      293.0066      -2342.1119      6.4385929     -2335.6733     -11878.84     
     23350   158.02339      313.25813     -2342.5699      6.8836045     -2335.6862     -14078.829    
     23400   155.16384      307.5895      -2342.4621      6.7590407     -2335.7031     -9998.8361    
     23450   144.46253      286.37572     -2341.997       6.2928844     -2335.7041     -12396.696    
     23500   158.78203      314.76202     -2342.6372      6.9166513     -2335.7206     -14816.526    
     23550   159.27378      315.73684     -2342.6778      6.9380723     -2335.7398     -10250.624    
     23600   150.473        298.2906      -2342.3118      6.5547047     -2335.7571     -10036.792    
     23650   155.56459      308.38392     -2342.5484      6.7764976     -2335.7719     -11989.045    
     23700   155.87222      308.99375     -2342.5703      6.7898981     -2335.7804     -13332.779    
     23750   159.28753      315.76411     -2342.5709      6.9386715     -2335.6322     -13542.551    
     23800   151.48702      300.30074     -2342.2418      6.598876      -2335.643      -12199.681    
     23850   150.79006      298.91912     -2342.2224      6.5685159     -2335.6539     -10016.552    
     23900   162.74421      322.61647     -2342.7569      7.0892468     -2335.6677     -10620.552    
     23950   145.26838      287.9732      -2342.0119      6.3279877     -2335.6839     -10645.517    
     24000   151.26316      299.85698     -2342.2754      6.5891246     -2335.6863     -10645.98     
     24050   161.81727      320.77894     -2342.7539      7.0488685     -2335.705      -11573.162    
     24100   134.01462      265.66428     -2341.5451      5.8377665     -2335.7073     -12744.254    
     24150   155.85977      308.96908     -2342.6465      6.789356      -2335.8571     -10286.942    
     24200   165.86363      328.80025     -2343.033       7.2251305     -2335.8079     -11881.515    
     24250   160.63301      318.43132     -2342.8248      6.9972814     -2335.8275     -10696.83     
     24300   161.32938      319.81176     -2342.8688      7.0276156     -2335.8412     -10799.428    
     24350   139.84031      277.21285     -2341.937       6.0915374     -2335.8455     -10211.451    
     24400   161.86237      320.86835     -2342.9195      7.0508333     -2335.8687     -10095.922    
     24450   159.35744      315.90269     -2342.8267      6.9417167     -2335.885      -9913.13      
     24500   148.35666      294.09525     -2342.3543      6.4625152     -2335.8917     -13264.466    
     24550   165.99208      329.0549      -2342.9656      7.2307262     -2335.7348     -9224.1699    
     24600   154.92416      307.11436     -2342.4959      6.7485998     -2335.7473     -8689.5954    
     24650   153.02301      303.34562     -2342.4293      6.6657849     -2335.7635     -10410.786    
     24700   147.18267      291.76799     -2342.1856      6.4113755     -2335.7742     -8556.2894    
     24750   160.69328      318.5508      -2342.7925      6.9999069     -2335.7926     -9530.867     
     24800   146.47827      290.37163     -2342.1755      6.3806913     -2335.7948     -10760.224    
     24850   149.07022      295.50979     -2342.3186      6.4935984     -2335.825      -11341.464    
     24900   146.91188      291.23119     -2342.2232      6.3995797     -2335.8236     -13279.047    
     24950   143.10641      283.68742     -2342.0759      6.233811      -2335.8421     -9241.3355    
     25000   146.64091      290.69404     -2342.2428      6.3877762     -2335.855      -10715.956    
     25050   154.9398       307.14537     -2342.6258      6.7492813     -2335.8765     -10529.43     
     25100   143.9959       285.4507      -2342.1508      6.2725577     -2335.8782     -11653.173    
     25150   147.54191      292.48014     -2342.3338      6.4270244     -2335.9068     -12057.381    
     25200   145.32316      288.08179     -2342.249       6.330374      -2335.9186     -12168.371    
     25250   144.48705      286.42433     -2342.2265      6.2939526     -2335.9325     -11262.587    
     25300   146.6186       290.64981     -2342.3379      6.3868043     -2335.9511     -8832.2027    
     25350   143.11799      283.71037     -2342.1926      6.2343154     -2335.9583     -10824.726    
     25400   157.45625      312.13386     -2342.8328      6.8588997     -2335.9739     -7674.7691    
     25450   158.3221       313.85029     -2342.8901      6.8966168     -2335.9935     -12264.247    
     25500   147.84894      293.08878     -2342.4432      6.4403986     -2336.0028     -9193.7313    
     25550   149.82529      297.00661     -2342.5088      6.5264899     -2335.9823     -8204.5556    
     25600   151.22906      299.78937     -2342.5516      6.5876389     -2335.9639     -13031.293    
     25650   160.45431      318.07708     -2342.9729      6.9894972     -2335.9834     -12394.126    
     25700   154.83888      306.94531     -2342.7548      6.7448852     -2336.0099     -10764.87     
     25750   153.93897      305.16136     -2342.7165      6.7056843     -2336.0108     -13418.183    
     25800   145.07272      287.58532     -2342.3401      6.3194645     -2336.0206     -12099.392    
     25850   154.5416       306.35599     -2342.7616      6.7319353     -2336.0297     -11463.802    
     25900   155.54222      308.33957     -2342.4929      6.775523      -2335.7174     -12292.712    
     25950   159.09304      315.37855     -2342.6889      6.9301992     -2335.7587     -9077.2391    
     26000   157.52217      312.26453     -2342.6259      6.8617709     -2335.7641     -10947.023    
     26050   158.1156       313.44093     -2342.6766      6.8876213     -2335.789      -9729.0111    
     26100   147.36086      292.12124     -2342.2164      6.4191378     -2335.7972     -12424.258    
     26150   148.68796      294.75201     -2342.3383      6.4769469     -2335.8613     -11538.209    
     26200   150.00578      297.3644      -2342.4121      6.5343521     -2335.8777     -12368.841    
     26250   139.62288      276.78182     -2341.9734      6.0820659     -2335.8913     -9123.455     
     26300   145.86022      289.14643     -2342.2598      6.3537686     -2335.9061     -13045.61     
     26350   152.96117      303.22302     -2342.5236      6.6630907     -2335.8605     -9079.3874    
     26400   152.00221      301.32203     -2342.3497      6.6213181     -2335.7284     -10155.017    
     26450   155.61716      308.48813     -2342.5137      6.7787875     -2335.7349     -10106.646    
     26500   172.20744      341.37592     -2343.3129      7.5014712     -2335.8114     -8848.5146    
     26550   159.26224      315.71397     -2342.7886      6.9375697     -2335.851      -11256.751    
     26600   155.96835      309.18431     -2342.4377      6.7940855     -2335.6436     -9581.8887    
     26650   148.79632      294.96683     -2342.1373      6.4816674     -2335.6556     -8303.5191    
     26700   139.04731      275.64084     -2341.7254      6.0569938     -2335.6684     -9507.8865    
     26750   148.04621      293.47984     -2342.1276      6.4489918     -2335.6786     -9198.2976    
     26800   158.44419      314.0923      -2342.5569      6.9019348     -2335.655      -10039.655    
     26850   151.87099      301.0619      -2342.2801      6.6156019     -2335.6645     -11869.059    
     26900   146.90307      291.21373     -2342.1417      6.3991959     -2335.7425     -10792.992    
     26950   146.09826      289.61831     -2342.0825      6.3641378     -2335.7184     -10717.718    
     27000   157.93346      313.07986     -2342.6424      6.8796872     -2335.7627     -10582.26     
     27050   153.07685      303.45234     -2342.4547      6.6681299     -2335.7865     -10601.208    
     27100   160.51923      318.20577     -2342.7848      6.9923251     -2335.7925     -7014.5359    
     27150   165.35516      327.79228     -2342.9816      7.2029813     -2335.7787     -10696.566    
     27200   157.78971      312.7949      -2342.669       6.8734254     -2335.7956     -11187.399    
     27250   145.7324       288.89306     -2342.1664      6.348201      -2335.8182     -9203.8613    
     27300   143.04323      283.56217     -2342.0654      6.2310588     -2335.8344     -7522.2659    
     27350   150.61853      298.57909     -2342.4133      6.5610441     -2335.8522     -9592.4158    
     27400   146.09145      289.60482     -2342.2003      6.3638413     -2335.8364     -10264.874    
     27450   145.39107      288.21641     -2342.1615      6.3333321     -2335.8282     -13662.076    
     27500   158.08107      313.37248     -2342.7869      6.8861174     -2335.9008     -15651.494    
     27550   152.79535      302.89431     -2342.4539      6.6558676     -2335.7981     -10788.627    
     27600   150.87669      299.09084     -2342.4466      6.5722894     -2335.8743     -8467.7288    
     27650   148.10323      293.59286     -2342.3622      6.4514755     -2335.9107     -13900.224    
     27700   158.41096      314.02644     -2342.8308      6.9004875     -2335.9303     -13086.251    
     27750   149.34411      296.05274     -2342.4567      6.5055295     -2335.9512     -14069.94     
     27800   154.42137      306.11765     -2342.609       6.726698      -2335.8823     -11127.043    
     27850   155.02517      307.31461     -2342.6543      6.7530003     -2335.9013     -14307.564    
     27900   152.92542      303.15216     -2342.5514      6.6615337     -2335.8899     -12413.053    
     27950   153.6159       304.52094     -2342.6018      6.6916115     -2335.9102     -10546.635    
     28000   136.47125      270.53417     -2341.8471      5.9447787     -2335.9023     -12869.842    
     28050   154.00402      305.29033     -2342.6274      6.7085183     -2335.9189     -10705.157    
     28100   156.01596      309.27869     -2342.649       6.7961594     -2335.8528     -11350.976    
     28150   148.50771      294.39469     -2342.3431      6.4690951     -2335.874      -9873.5683    
     28200   164.07248      325.24957     -2343.119       7.147107      -2335.9719     -12410.881    
     28250   137.87539      273.31768     -2341.9105      6.005944      -2335.9046     -8871.28      
     28300   156.86713      310.96602     -2342.7606      6.8332371     -2335.9274     -12179.13     
     28350   152.03513      301.38729     -2342.5642      6.6227521     -2335.9414     -11641.115    
     28400   147.74191      292.8766      -2342.4921      6.4357363     -2336.0563     -12735.357    
     28450   152.66782      302.6415      -2342.6347      6.6503123     -2335.9844     -11431.287    
     28500   146.78104      290.97183     -2342.3901      6.3938804     -2335.9962     -9691.4445    
     28550   155.23622      307.73297     -2342.7789      6.7621934     -2336.0167     -14633.713    
     28600   155.69263      308.63774     -2342.8544      6.7820751     -2336.0723     -9517.3869    
     28650   158.97705      315.14862     -2342.9513      6.9251466     -2336.0261     -13915.801    
     28700   149.33012      296.025       -2342.5416      6.5049198     -2336.0367     -14768.085    
     28750   156.63455      310.50496     -2342.881       6.8231058     -2336.0579     -9458.3419    
     28800   158.50885      314.22048     -2342.8572      6.9047514     -2335.9524     -13619.859    
     28850   139.36638      276.27335     -2341.9466      6.0708928     -2335.8757     -10441.145    
     28900   149.59001      296.54019     -2342.4103      6.5162407     -2335.894      -7979.8163    
     28950   158.10898      313.42779     -2342.7984      6.8873328     -2335.9111     -9352.6963    
     29000   158.44509      314.09408     -2342.8084      6.9019739     -2335.9065     -10066.089    
     29050   152.00072      301.31908     -2342.3969      6.6212532     -2335.7756     -8668.547     
     29100   147.5613       292.51858     -2342.1771      6.427869      -2335.7492     -9239.0588    
     29150   162.41668      321.96718     -2342.8917      7.0749791     -2335.8168     -10186.923    
     29200   146.90748      291.22247     -2342.2376      6.3993879     -2335.8382     -13259.77     
     29250   154.41539      306.1058      -2342.5706      6.7264376     -2335.8441     -7994.3169    
     29300   157.94808      313.10884     -2342.5413      6.8803241     -2335.661      -6030.9141    
     29350   157.68313      312.58362     -2342.4882      6.8687828     -2335.6194     -13466.692    
     29400   154.81233      306.89267     -2342.3836      6.7437284     -2335.6399     -7153.9243    
     29450   158.17577      313.56021     -2342.544       6.8902424     -2335.6538     -12835.48     
     29500   161.22768      319.61016     -2342.6954      7.0231854     -2335.6722     -8887.5856    
     29550   164.95892      327.00681     -2342.869       7.1857211     -2335.6833     -12503.645    
     29600   165.34474      327.77163     -2342.9174      7.2025274     -2335.7148     -9947.9801    
     29650   151.72119      300.76496     -2342.3339      6.6090767     -2335.7249     -11825.267    
     29700   136.38152      270.3563      -2341.6782      5.9408701     -2335.7373     -13339.352    
     29750   152.16623      301.64718     -2342.3939      6.6284628     -2335.7654     -11154.234    
     29800   156.65576      310.547       -2342.602       6.8240295     -2335.778      -12164.711    
     29850   148.19328      293.77139     -2342.243       6.4553984     -2335.7876     -13904.218    
     29900   152.16941      301.65347     -2342.4298      6.6286012     -2335.8012     -9290.9951    
     29950   152.25937      301.83182     -2342.2296      6.6325201     -2335.5971     -10893.315    
     30000   157.45526      312.1319      -2342.4656      6.8588565     -2335.6067     -12944.634    
     30050   143.63966      284.74451     -2341.8732      6.2570397     -2335.6161     -9411.9273    
     30100   144.05599      285.56982     -2341.8974      6.2751753     -2335.6222     -10462.496    
     30150   162.32434      321.78414     -2342.6844      7.070957      -2335.6135     -12923.15     
     30200   149.33431      296.0333      -2342.1087      6.5051023     -2335.6036     -7872.9466    
     30250   154.81367      306.89534     -2342.3606      6.7437872     -2335.6168     -10892.867    
     30300   159.81805      316.81579     -2342.5957      6.9617814     -2335.6339     -12536.304    
     30350   142.81771      283.11511     -2341.857       6.221235      -2335.6357     -11441.118    
     30400   152.088        301.4921      -2342.274       6.6250552     -2335.6489     -11512.789    
     30450   165.17175      327.4287      -2342.8673      7.1949919     -2335.6723     -13330.142    
     30500   155.03994      307.34387     -2342.4378      6.7536433     -2335.6841     -11021.641    
     30550   159.91106      317.00016     -2342.6542      6.9658327     -2335.6883     -10297.788    
     30600   155.76813      308.78742     -2342.4833      6.7853641     -2335.698      -12236.021    
     30650   149.99922      297.3514      -2342.2405      6.5340665     -2335.7064     -9680.0817    
     30700   143.4234       284.3158      -2341.9669      6.2476192     -2335.7193     -9393.8756    
     30750   143.81659      285.09525     -2341.9844      6.264747      -2335.7197     -13903.15     
     30800   149.67095      296.70065     -2342.2643      6.5197667     -2335.7445     -8628.4883    
     30850   166.36691      329.79794     -2343.0028      7.2470539     -2335.7558     -11094.125    
     30900   151.2343       299.79975     -2342.365       6.5878671     -2335.7772     -13366.666    
     30950   150.28814      297.92413     -2342.3298      6.5466518     -2335.7831     -12790.696    
     31000   147.03384      291.47297     -2342.1985      6.4048926     -2335.7936     -8841.5271    
     31050   159.19503      315.58073     -2342.7358      6.9346418     -2335.8012     -9921.6794    
     31100   156.71227      310.65903     -2342.6251      6.8264913     -2335.7986     -14207.812    
     31150   148.1825       293.75002     -2342.2557      6.4549289     -2335.8008     -12418.498    
     31200   149.58363      296.52755     -2342.2856      6.5159629     -2335.7696     -10023.766    
     31250   150.76321      298.86589     -2342.3543      6.5673463     -2335.787      -12797.855    
     31300   140.54135      278.60255     -2341.9172      6.122075      -2335.7952     -10855.467    
     31350   154.50642      306.28625     -2342.5379      6.7304028     -2335.8075     -13042.293    
     31400   147.12948      291.66256     -2342.2238      6.4090586     -2335.8148     -11383.782    
     31450   156.7628       310.75919     -2342.6483      6.8286923     -2335.8196     -12963.504    
     31500   146.81925      291.04757     -2342.2189      6.3955447     -2335.8234     -7248.1334    
     31550   150.42828      298.20195     -2342.2804      6.5527567     -2335.7276     -10678.841    
     31600   150.5427       298.42876     -2342.3018      6.5577406     -2335.744      -11816.892    
     31650   159.15214      315.49571     -2342.6794      6.9327737     -2335.7466     -10729.798    
     31700   149.20483      295.77664     -2342.1383      6.4994623     -2335.6388     -8949.8046    
     31750   148.29856      293.98009     -2342.0689      6.4599845     -2335.609      -9710.1589    
     31800   157.621        312.46046     -2342.4827      6.8660763     -2335.6166     -9368.7011    
     31850   148.59693      294.57157     -2342.0578      6.4729819     -2335.5848     -10597.107    
     31900   156.54394      310.32534     -2342.408       6.8191588     -2335.5888     -9382.0418    
     31950   159.40492      315.99681     -2342.5404      6.943785      -2335.5966     -12749.759    
     32000   153.99901      305.28038     -2342.3082      6.7082997     -2335.5999     -12205.818    
     32050   159.87359      316.92588     -2342.6143      6.9642005     -2335.6501     -9836.3263    
     32100   167.41195      331.86958     -2342.7479      7.2925767     -2335.4553     -10208.316    
     32150   148.49483      294.36916     -2341.9302      6.468534      -2335.4616     -4115.0582    
     32200   147.15668      291.71648     -2341.8754      6.4102435     -2335.4651     -12640.425    
     32250   158.18581      313.5801      -2342.4076      6.8906795     -2335.5169     -11750.426    
     32300   132.92716      263.50856     -2341.1664      5.7903962     -2335.3761     -9560.2395    
     32350   158.55925      314.32039     -2342.3008      6.9069469     -2335.3939     -8991.4111    
     32400   141.18857      279.88558     -2341.5455      6.1502685     -2335.3952     -7853.9158    
     32450   150.00005      297.35303     -2341.9293      6.5341024     -2335.3952     -10485.134    
     32500   145.65969      288.74891     -2341.7524      6.3450335     -2335.4073     -10528.004    
     32550   149.51433      296.39017     -2341.9022      6.5129442     -2335.3893     -11223.945    
     32600   143.78217      285.027       -2341.6672      6.2632473     -2335.404      -13605.345    
     32650   152.69716      302.69966     -2342.0914      6.6515904     -2335.4398     -6577.3585    
     32700   155.95139      309.1507      -2342.2385      6.793347      -2335.4452     -9984.1998    
     32750   145.63406      288.69811     -2341.7885      6.3439171     -2335.4446     -13880.038    
     32800   158.99444      315.1831      -2342.38        6.9259043     -2335.454      -12953.234    
     32850   144.86295      287.16949     -2341.9144      6.310327      -2335.6041     -12657.331    
     32900   151.60427      300.53317     -2342.0648      6.6039834     -2335.4609     -14568.749    
     32950   156.54534      310.32811     -2342.2823      6.8192195     -2335.4631     -10910.091    
     33000   149.91321      297.1809      -2341.9999      6.5303199     -2335.4695     -12741.502    
[...]
    191100   159.37875      315.94493     -2345.1071      6.9426448     -2338.1644     -9864.8276    
    191150   160.65088      318.46673     -2345.1226      6.9980596     -2338.1245     -11620.321    
    191200   164.64153      326.37762     -2345.3225      7.1718951     -2338.1506     -14043.997    
    191250   160.4479       318.06438     -2345.124       6.9892181     -2338.1348     -12228.105    
    191300   154.7296       306.72869     -2344.8926      6.7401251     -2338.1524     -13840.09     
    191350   164.32468      325.74952     -2345.3426      7.1580931     -2338.1845     -10133.617    
    191400   160.28402      317.7395      -2345.1962      6.982079      -2338.2141     -14522.417    
    191450   154.77074      306.81023     -2344.9857      6.7419169     -2338.2438     -14608.942    
    191500   156.85168      310.93538     -2345.1133      6.8325639     -2338.2808     -11592.684    
    191550   156.38712      310.01447     -2345.1176      6.8123277     -2338.3053     -11586.188    
    191600   165.20689      327.49837     -2345.5285      7.1965227     -2338.332      -11060.617    
    191650   164.32292      325.74603     -2345.5455      7.1580164     -2338.3874     -11886.812    
    191700   161.20433      319.56387     -2345.4338      7.0221684     -2338.4116     -10761.448    
    191750   156.36888      309.97831     -2345.2592      6.811533      -2338.4477     -14111.16     
    191800   161.59921      320.34667     -2345.5164      7.0393696     -2338.477      -14367.111    
    191850   154.38071      306.03706     -2345.2304      6.7249271     -2338.5055     -13498.589    
    191900   151.30624      299.94237     -2345.1266      6.5910009     -2338.5356     -12593.577    
    191950   161.91955      320.9817      -2345.6144      7.0533239     -2338.5611     -13004.237    
    192000   165.51577      328.11067     -2345.8002      7.2099776     -2338.5902     -10469.213    
    192050   155.63663      308.52672     -2345.2898      6.7796356     -2338.5102     -11435.005    
    192100   165.24517      327.57425     -2345.7232      7.1981902     -2338.525      -12321.807    
    192150   160.7328       318.62915     -2345.5802      7.0016285     -2338.5786     -14090.049    
    192200   161.29767      319.7489      -2345.6216      7.0262342     -2338.5954     -14558.061    
    192250   142.92753      283.3328      -2344.8067      6.2260187     -2338.5807     -11144.581    
    192300   158.28495      313.77663     -2345.5123      6.8949981     -2338.6173     -11909.299    
    192350   150.19369      297.73691     -2345.1803      6.5425377     -2338.6378     -12068.866    
    192400   145.51059      288.45334     -2345.006       6.3385385     -2338.6674     -16624.653    
    192450   154.86811      307.00326     -2345.4472      6.7461586     -2338.701      -10172.761    
    192500   162.65201      322.43368     -2345.8182      7.0852302     -2338.733      -13910.163    
    192550   157.81502      312.84507     -2345.6273      6.8745278     -2338.7528     -9536.1749    
    192600   163.61402      324.34073     -2345.9166      7.1271362     -2338.7894     -13488.582    
    192650   158.17821      313.56504     -2345.7096      6.8903486     -2338.8193     -10898.917    
    192700   158.46611      314.13575     -2345.7812      6.9028896     -2338.8783     -12844.079    
    192750   151.09478      299.52317     -2345.4524      6.5817895     -2338.8706     -12199.034    
    192800   152.65177      302.60969     -2345.5942      6.6496133     -2338.9446     -11275.444    
    192850   147.75573      292.90401     -2345.4044      6.4363384     -2338.968      -13555.835    
    192900   165.00173      327.09167     -2346.1955      7.1875858     -2339.0079     -9825.7767    
    192950   161.46647      320.08352     -2346.0474      7.0335873     -2339.0138     -12878.695    
    193000   176.83437      350.54813     -2346.5265      7.7030235     -2338.8234     -13106.591    
    193050   160.3697       317.90935     -2345.8384      6.9858115     -2338.8526     -12523.456    
    193100   150.51721      298.37823     -2345.4196      6.5566302     -2338.8629     -13501.233    
    193150   151.00228      299.33982     -2345.4996      6.5777604     -2338.9219     -13033.962    
    193200   147.05547      291.51584     -2345.327       6.4058345     -2338.9212     -11956.213    
    193250   165.80668      328.68736     -2346.1805      7.2226499     -2338.9578     -12886.417    
    193300   162.211        321.55945     -2346.0456      7.0660197     -2338.9795     -11627.539    
    193350   153.3565       304.0067      -2345.6787      6.6803116     -2338.9984     -11079.934    
    193400   155.22442      307.70958     -2345.7799      6.7616795     -2339.0182     -13031.996    
    193450   155.65103      308.55528     -2345.8183      6.780263      -2339.038      -14821.356    
    193500   148.73118      294.8377      -2345.5418      6.4788298     -2339.0629     -10236.946    
    193550   146.32188      290.06162     -2345.4618      6.3738791     -2339.0879     -9553.4118    
    193600   156.21687      309.67697     -2345.9159      6.8049112     -2339.111      -12959.087    
    193650   154.91461      307.09543     -2345.8846      6.748184      -2339.1364     -8467.1235    
    193700   168.91891      334.8569      -2346.5148      7.3582207     -2339.1566     -8333.5649    
    193750   154.97364      307.21245     -2345.9189      6.7507553     -2339.1681     -10981.478    
    193800   167.97388      332.98352     -2346.5114      7.3170546     -2339.1943     -9722.346     
    193850   152.35614      302.02363     -2345.8471      6.6367352     -2339.2104     -10966.896    
    193900   165.46004      328.0002      -2346.4394      7.2075501     -2339.2319     -11760.162    
    193950   159.24467      315.67913     -2346.0192      6.9368042     -2339.0824     -8009.3697    
    194000   159.7506       316.68208     -2345.9788      6.9588432     -2339.0199     -11039.283    
    194050   149.90751      297.1696      -2345.574       6.5300715     -2339.0439     -12873.383    
    194100   144.04236      285.5428      -2345.3364      6.2745815     -2339.0618     -15474.028    
    194150   157.39797      312.01833     -2345.9332      6.8563608     -2339.0769     -12006.335    
    194200   162.44725      322.02779     -2346.1801      7.0763109     -2339.1038     -13699.857    
    194250   158.31287      313.83198     -2346.0238      6.8962143     -2339.1275     -11081.278    
    194300   146.09148      289.60487     -2345.4986      6.3638426     -2339.1347     -11667.262    
    194350   155.17194      307.60555     -2345.9217      6.7593934     -2339.1623     -14005.044    
    194400   150.10967      297.57034     -2345.7066      6.5388776     -2339.1677     -14983.64     
    194450   150.57339      298.4896      -2345.7582      6.5590776     -2339.1992     -10358.549    
    194500   165.50028      328.07997     -2346.4279      7.209303      -2339.2186     -13339.764    
    194550   151.40886      300.1458      -2345.8607      6.5954713     -2339.2652     -12708.198    
    194600   150.38705      298.1202      -2345.8306      6.5509603     -2339.2796     -11328.936    
    194650   168.62011      334.26457     -2346.6496      7.3452047     -2339.3044     -10918.275    
    194700   142.12171      281.73538     -2345.5097      6.1909166     -2339.3188     -11514.22     
    194750   158.02832      313.26791     -2346.2253      6.8838194     -2339.3415     -10714.741    
    194800   164.02472      325.15488     -2346.497       7.1450263     -2339.352      -9480.1431    
    194850   155.72194      308.69585     -2346.1555      6.7833519     -2339.3721     -13266.668    
    194900   169.55459      336.11705     -2346.7818      7.3859115     -2339.3959     -13963.24     
    194950   156.08541      309.41638     -2346.208       6.799185      -2339.4088     -13126.29     
    195000   137.70793      272.98571     -2345.4199      5.9986493     -2339.4213     -14671.565    
    195050   148.91736      295.20676     -2345.9352      6.4869396     -2339.4483     -10395.008    
    195100   136.94225      271.46788     -2345.4238      5.9652962     -2339.4585     -12880.563    
    195150   143.61529      284.6962      -2345.7297      6.2559783     -2339.4737     -14101.558    
    195200   144.99902      287.43923     -2345.8024      6.3162542     -2339.4861     -11428.606    
    195250   162.62077      322.37175     -2346.5972      7.0838693     -2339.5133     -14627.724    
    195300   159.14744      315.4864      -2346.4579      6.932569      -2339.5253     -11052.012    
    195350   148.12073      293.62757     -2345.9933      6.4522382     -2339.541      -10965.501    
    195400   149.87601      297.10714     -2346.0899      6.528699      -2339.5612     -11426.703    
    195450   159.78125      316.74283     -2346.534       6.960178      -2339.5738     -12309.509    
    195500   146.56254      290.53867     -2345.9607      6.3843621     -2339.5764     -14953.742    
    195550   158.32545      313.85693     -2346.4929      6.8967626     -2339.5961     -11296.121    
    195600   143.65173      284.76843     -2345.8715      6.2575654     -2339.6139     -10239.808    
    195650   160.11227      317.39903     -2346.5819      6.9745977     -2339.6073     -15396.474    
    195700   166.12886      329.32603     -2346.8616      7.2366842     -2339.6249     -11030.63     
    195750   146.63495      290.68222     -2346.0245      6.3875164     -2339.637      -9540.1912    
    195800   153.04552      303.39023     -2346.3256      6.666765      -2339.6588     -11169.84     
    195850   148.30254      293.98797     -2346.1307      6.4601578     -2339.6706     -10912.333    
    195900   158.06459      313.33981     -2346.5692      6.8853995     -2339.6838     -10180.093    
    195950   175.04282      346.99665     -2347.3295      7.6249824     -2339.7045     -12490.705    
    196000   154.8488       306.96498     -2346.457       6.7453173     -2339.7117     -11348.488    
    196050   153.141        303.57951     -2346.3957      6.6709243     -2339.7248     -8278.8494    
    196100   150.31237      297.97218     -2346.2907      6.5477075     -2339.743      -12490.261    
    196150   151.22501      299.78135     -2346.3489      6.5874627     -2339.7615     -12602.127    
    196200   147.3537       292.10705     -2346.1928      6.4188259     -2339.7739     -12195.828    
    196250   155.67495      308.6027      -2346.5768      6.781305      -2339.7955     -10419.815    
    196300   151.99434      301.30643     -2346.435       6.6209752     -2339.8141     -14113.805    
    196350   158.4111       314.02672     -2346.7254      6.9004936     -2339.8249     -14564.689    
    196400   151.48394      300.29464     -2346.4445      6.5987418     -2339.8458     -12873.364    
    196450   153.44461      304.18137     -2346.5433      6.6841497     -2339.8592     -12978.826    
    196500   164.60998      326.31508     -2347.0558      7.1705209     -2339.8853     -13295.454    
    196550   160.93055      319.02115     -2346.9055      7.0102425     -2339.8953     -11792.712    
    196600   166.38334      329.83051     -2347.1705      7.2477697     -2339.9227     -11981.132    
    196650   137.73948      273.04826     -2345.9358      6.0000238     -2339.9357     -14053.216    
    196700   156.66262      310.5606      -2346.7786      6.8243283     -2339.9543     -11126.347    
    196750   156.27723      309.79663     -2346.7734      6.8075408     -2339.9659     -11556.012    
    196800   161.13009      319.41671     -2346.9919      7.0189345     -2339.9729     -13356.71     
    196850   158.03493      313.28102     -2346.8752      6.8841074     -2339.9911     -12365.437    
    196900   150.22008      297.78921     -2346.5592      6.543687      -2340.0155     -14575.46     
    196950   155.00272      307.2701      -2346.7863      6.7520223     -2340.0343     -9362.1568    
    197000   156.85683      310.94559     -2346.8888      6.8327883     -2340.056      -9386.3703    
    197050   140.33905      278.20153     -2346.1799      6.1132629     -2340.0666     -12960.536    
    197100   151.71942      300.76145     -2346.6956      6.6089996     -2340.0866     -14497.376    
    197150   153.43712      304.16653     -2346.7825      6.6838236     -2340.0987     -10347.439    
    197200   136.42116      270.43489     -2346.0486      5.942597      -2340.106      -14221.75     
    197250   146.24783      289.91481     -2346.4976      6.3706532     -2340.1269     -11785.502    
    197300   145.9928       289.40925     -2346.5022      6.3595439     -2340.1426     -12332.889    
    197350   149.08378      295.53667     -2346.6594      6.4941892     -2340.1653     -12742.684    
    197400   143.33331      284.13721     -2346.4243      6.2436948     -2340.1806     -13122.122    
    197450   154.29477      305.8667      -2346.9216      6.7211835     -2340.2004     -13116.16     
    197500   150.12028      297.59138     -2346.7465      6.5393397     -2340.2072     -11272.957    
    197550   150.31516      297.9777      -2346.7719      6.547829      -2340.2241     -12985.805    
    197600   137.70361      272.97717     -2346.2411      5.9984616     -2340.2427     -12274.81     
    197650   149.62238      296.60437     -2346.7738      6.5176511     -2340.2562     -12424.445    
    197700   150.00098      297.35489     -2346.8091      6.5341431     -2340.275      -10907.758    
    197750   149.5718       296.50409     -2346.8006      6.5154474     -2340.2851     -10379.893    
    197800   137.55506      272.68268     -2346.2871      5.9919905     -2340.2951     -13772.083    
    197850   157.78564      312.78682     -2347.1878      6.8732479     -2340.3146     -15706.041    
    197900   150.84857      299.0351      -2346.8932      6.5710646     -2340.3221     -11077.378    
    197950   156.86064      310.95316     -2347.1749      6.8329546     -2340.342      -13540.82     
    198000   149.77819      296.91324     -2346.8725      6.5244382     -2340.348      -12659.282    
    198050   147.8055       293.00267     -2346.6396      6.4385065     -2340.2011     -12648.552    
    198100   144.09229      285.64178     -2346.4957      6.2767566     -2340.2189     -10920.171    
    198150   159.31277      315.81414     -2347.1727      6.9397709     -2340.233      -9516.884     
    198200   156.69629      310.62735     -2347.0805      6.8257951     -2340.2547     -11258.238    
    198250   146.06916      289.56062     -2346.6312      6.3628702     -2340.2683     -11529.391    
    198300   151.52525      300.37653     -2346.8697      6.6005412     -2340.2692     -13378.541    
    198350   156.83439      310.90112     -2347.1372      6.831811      -2340.3054     -13391.776    
    198400   140.09443      277.71661     -2346.405       6.1026071     -2340.3024     -11333.131    
    198450   145.01253      287.46602     -2346.6283      6.3168429     -2340.3115     -10187.908    
    198500   155.77148      308.79405     -2347.1091      6.7855097     -2340.3236     -13623.857    
    198550   154.81744      306.90281     -2347.0841      6.7439513     -2340.3402     -13868.134    
    198600   144.50599      286.46187     -2346.6489      6.2947775     -2340.3541     -10792.766    
    198650   131.27397      260.23134     -2346.1188      5.718382      -2340.4005     -14022.618    
    198700   154.21404      305.70665     -2347.129       6.7176666     -2340.4114     -11420.025    
    198750   142.65765      282.79781     -2346.63        6.2142627     -2340.4158     -13582.346    
    198800   140.27665      278.07782     -2346.4396      6.1105445     -2340.329      -14177.352    
    198850   145.75054      288.92902     -2346.747       6.3489911     -2340.398      -13381.387    
    198900   139.0461       275.63845     -2346.4058      6.0569413     -2340.3489     -15190.025    
    198950   153.85734      304.99954     -2347.0737      6.7021285     -2340.3716     -12751.982    
    199000   142.88629      283.25106     -2346.6039      6.2242224     -2340.3797     -12014.488    
    199050   154.99427      307.25335     -2347.1304      6.7516542     -2340.3787     -13645.065    
    199100   147.05179      291.50855     -2346.7907      6.4056744     -2340.3851     -14876.896    
    199150   154.08769      305.45619     -2347.1207      6.712163      -2340.4085     -11715.382    
    199200   151.28771      299.90563     -2346.9971      6.5901938     -2340.4069     -12318.961    
    199250   150.70632      298.75312     -2346.9834      6.5648681     -2340.4185     -14376.397    
    199300   139.9332       277.39699     -2346.5236      6.0955839     -2340.428      -12320.102    
    199350   152.6923       302.69004     -2347.1352      6.6513789     -2340.4838     -11087.015    
    199400   143.87109      285.20328     -2346.805       6.267121      -2340.5379     -13938.289    
    199450   152.06349      301.4435      -2347.0724      6.6239873     -2340.4484     -9885.4023    
    199500   151.44864      300.22465     -2347.0564      6.5972039     -2340.4592     -9626.6931    
    199550   153.26767      303.83062     -2347.1482      6.6764422     -2340.4717     -12978.403    
    199600   141.72101      280.94106     -2346.5845      6.173462      -2340.411      -12370.085    
    199650   151.126        299.58508     -2347.0113      6.5831498     -2340.4281     -13397.732    
    199700   146.72273      290.85624     -2346.8042      6.3913404     -2340.4128     -10801.885    
    199750   150.42351      298.19249     -2346.9717      6.5525488     -2340.4192     -11564.812    
    199800   153.52293      304.33664     -2347.1294      6.6875617     -2340.4418     -16004.766    
    199850   144.28572      286.02523     -2346.7236      6.2851826     -2340.4384     -15056.459    
    199900   137.77581      273.12027     -2346.4489      6.0016063     -2340.4473     -11733.711    
    199950   149.06063      295.49077     -2346.9501      6.4931805     -2340.4569     -12323.247    
    200000   140.33591      278.19531     -2346.5781      6.1131262     -2340.465      -13658.449    
colvars: Saving collective variables state to "out.colvars.state".
Loop time of 1065.23 on 4 procs for 200000 steps with 338 atoms

Performance: 8.111 ns/day, 2.959 hours/ns, 187.753 timesteps/s, 63.461 katom-step/s
137.4% CPU use with 4 MPI tasks x 1 OpenMP threads

MPI task timing breakdown:
Section |  min time  |  avg time  |  max time  |%varavg| %total
---------------------------------------------------------------
Pair    | 825.96     | 911.16     | 977.15     | 202.9 | 85.54
Neigh   | 0.12364    | 1.4615     | 2.4932     |  73.9 |  0.14
Comm    | 13.136     | 73.702     | 144.97     | 633.1 |  6.92
Output  | 39.232     | 45.697     | 52.839     |  88.3 |  4.29
Modify  | 18.226     | 24.431     | 39.183     | 174.7 |  2.29
Other   |            | 8.78       |            |       |  0.82

Nlocal:           84.5 ave         121 max           3 min
Histogram: 1 0 0 0 0 0 0 1 0 2
Nghost:           1139 ave        1663 max         657 min
Histogram: 1 0 0 1 0 1 0 0 0 1
Neighs:              0 ave           0 max           0 min
Histogram: 4 0 0 0 0 0 0 0 0 0
FullNghs:      15433.5 ave       24472 max         292 min
Histogram: 1 0 0 0 0 1 0 0 0 2

Total # of neighbors = 61734
Ave neighs/atom = 182.64497
Neighbor list builds = 2557
Dangerous builds = 0
System init for write_data ...
Generated 0 of 10 mixed pair_coeff terms from geometric mixing rule

CITE-CITE-CITE-CITE-CITE-CITE-CITE-CITE-CITE-CITE-CITE-CITE-CITE

Your simulation uses code contributions which should be cited:
- Colvars module (Fiorin2013, plus other works listed for specific features)
The log file lists these citations in BibTeX format.

CITE-CITE-CITE-CITE-CITE-CITE-CITE-CITE-CITE-CITE-CITE-CITE-CITE

Total wall time: 0:18:26
