LAMMPS data file via write_data, version 2 Aug 2023, timestep = 100000, units = metal

125 atoms
4 atom types

0 8.496 xlo xhi
0 8.01 ylo yhi
0 29.014999 zlo zhi

Masses

1 55.845
2 15.999
3 1.008
4 35.45

Atoms # atomic

1 1 0.23856768 7.8422706 0.04178159856 0 0 0
2 1 0.22208544 1.8629658 2.03017948003 0 0 0
3 1 0.18886608 7.9227711 4.02205916138 0 0 0
4 1 0.12514608 1.911186 6.25128153455 0 0 0
5 1 1.57617792 1.7914365 0.04265204853 0 0 0
6 1 1.61627904 7.9247736 2.0426559296 0 0 0
7 1 1.5862032 1.8600021 4.1723568562 0 0 0
8 1 1.56691728 7.7692995 5.98724504365 0 0 0
9 1 3.17215152 7.9201278 0.05280729818 0 0 0
10 1 2.98201104 1.8854739 2.002034931 0 0 0
11 1 3.07708128 7.8237675 4.12245105792 0 0 0
12 1 3.03273216 1.7923176 6.03628039196 0 0 0
13 1 4.46430816 1.8800271 0.01537794947 0 0 0
14 1 4.4013528 7.8627762 2.04613772948 0 0 0
15 1 4.360572 1.8642474 4.01509556162 0 0 0
16 1 4.49370432 7.892253 6.20804918604 0 0 0
17 1 5.90964768 7.8604533 0.05773984801 0 0 0
18 1 5.85765216 1.8601623 1.99071908139 0 0 0
19 1 5.82052464 7.9418349 4.05571656022 0 0 0
20 1 5.86759248 1.8531135 5.93414759548 0 0 0
21 1 7.33943952 1.788633 0.10010174655 0 0 0
22 1 7.31012832 7.7951718 2.01190003066 0 0 0
23 1 7.34785056 1.8247581 4.03453561095 0 0 0
24 1 7.3498896 7.8216048 5.92254159588 0 0 0
25 1 0.26227152 3.8262168 0.09516919672 0 0 0
26 1 0.19693728 5.876136 2.00522658089 0 0 0
27 1 0.22786272 3.875238 4.13550780747 0 0 0
28 1 0.25199136 5.7711249 6.00784569294 0 0 0
29 1 1.64159712 5.9299632 0.10996684621 0 0 0
30 1 1.62265104 3.8935008 2.03424157989 0 0 0
31 1 1.57065552 5.9297229 4.03743711085 0 0 0
32 1 1.5917256 3.7947375 6.14015408838 0 0 0
33 1 3.09118464 3.8891754 0.09836084661 0 0 0
34 1 3.03952896 5.87133 2.00464628091 0 0 0
35 1 2.97368496 3.8371104 4.03482576094 0 0 0
36 1 3.05312256 5.7861036 5.96142169454 0 0 0
37 1 4.50024624 5.862519 0.0493254983 0 0 0
38 1 4.451904 3.8814057 1.99681223118 0 0 0
39 1 4.49633808 5.8520259 3.95445421371 0 0 0
40 1 4.49039088 3.7760742 6.02583499232 0 0 0
41 1 5.90820336 3.8499264 0.06528374775 0 0 0
42 1 5.85960624 5.8249521 1.95822228251 0 0 0
43 1 5.89775328 3.8575359 4.03540606092 0 0 0
44 1 5.85850176 5.7218634 5.89671824677 0 0 0
45 1 7.32414672 5.7579885 0.03946039864 0 0 0
46 1 7.3078344 3.9066372 2.06528762882 0 0 0
47 1 7.27546464 5.9050521 3.95967691353 0 0 0
48 1 7.2092808 3.7932156 6.04237354175 0 0 0
125 4 2.526686429790669 5.01139679383306 9.94223493643232 0 1 0
65 2 2.236932138817361 1.919081863176456 9.273283190864946 1 1 0
71 2 4.197022589573186 7.725683331408411 8.64794308747111 -1 0 0
119 3 3.415703277053505 0.26671632806503287 8.837918585866472 -1 1 0
86 3 0.007634512410616199 0.2171579877060859 9.448499085687285 1 1 0
118 3 3.8285540659570216 6.832776613093188 8.806890778068034 -1 0 0
55 2 0.17882981537025666 0.7165055216924358 10.286518271383152 1 1 0
106 3 2.134647011583795 2.0393220709305937 8.292694841127611 1 1 0
107 3 2.2038875581052997 2.8755446616284144 9.488799424089907 1 1 0
100 3 6.9401546009866015 2.5090387264846292 8.16899797445599 1 0 0
92 3 5.235454886980169 2.505000551628576 12.770540254830356 1 0 0
101 3 5.535342382924306 3.2109306315069337 8.36629858240253 1 0 0
121 3 4.644696950725342 4.9100601075699215 10.584557907056661 1 0 0
62 2 6.337853587889555 3.0388138615207647 8.868142257903944 1 0 0
69 2 1.4427298267601212 5.113416132433236 12.904307550377416 0 1 0
113 3 3.6982375187107115 1.3389044844545226 12.672046815240703 1 1 0
88 3 5.748336099697478 0.008510919986294496 11.918553404670739 0 1 0
85 3 3.9965003429258292 1.5767150069830762 11.008685790395534 1 1 0
54 2 4.328568579750821 1.2601858436937912 11.875700793381668 1 1 0
120 3 5.985244511534814 4.288940174049936 10.124232568652078 0 0 0
110 3 0.9915501348520023 5.064750694130774 8.842502618981804 0 0 0
96 3 7.179000557945204 6.898185633498485 13.451852543493894 -1 1 0
58 2 7.10103853700316 7.589242911369261 8.151744243962654 2 -1 0
56 2 6.304176246178681 7.26748358702098 12.329159125900679 0 0 0
90 3 7.4465627861051065 6.689568367245877 8.446515633460569 2 -1 0
89 3 6.349579929349833 6.569832025620738 11.697619862713644 0 0 0
108 3 5.350169608445156 4.075259272112705 12.505047852332273 1 1 0
66 2 5.501219914951017 3.373899835580355 13.186084071228722 1 1 0
87 3 0.9694641889304297 1.3131861433413186 10.113848942601933 1 1 0
60 2 7.9676810770189155 6.959730347816147 14.072748760508064 -1 1 0
51 2 0.18689256997724885 1.0596681001488812 12.97229809270672 2 1 0
109 3 0.8291824237766358 4.326590336412578 12.908911001185942 1 1 0
72 2 5.505937181754242 4.782083741601116 10.872905378089003 1 0 0
78 3 0.09272054691461065 0.8973898141793584 11.971434023741757 2 1 0
67 2 0.10814023005251808 5.063783274533087 8.314544071517393 0 0 0
115 3 1.8284117502046229 5.183070090520623 11.951877348122368 0 1 0
93 3 6.342464431211557 7.521956231011871 8.710493547721635 2 -1 0
79 3 8.466834252735698 0.188250476557955 13.452377923552799 1 1 0
80 3 7.028901371278246 3.6012003687446112 13.67731593193938 0 0 0
116 3 1.7942756288956971 1.3972988591851478 13.41968176187689 2 1 0
103 3 8.084198709780368 2.483841950015934 13.887256035247075 0 1 0
97 3 0.1252826177482617 6.399202566822815 13.666300036124435 0 1 0
63 2 7.940272219923239 3.497700965615887 14.06486446648158 0 1 0
124 3 0.059245742245967126 4.0978389273528 7.9714373159320076 0 0 0
95 3 4.166047661842818 4.029471494287044 14.29855763803598 -1 1 0
94 3 2.6819022053902852 4.568873418484893 13.730197007419175 -1 1 0
70 2 2.7120015754274567 1.5065967347722815 13.7935752711478 1 1 0
111 3 2.8408006355930695 2.4223646758759383 14.14603777921874 1 1 0
61 2 3.148708678031018 3.6063024057189246 18.284228687210543 1 0 0
105 3 1.0587559013904022 0.03559120979186038 15.599529343666129 1 1 0
75 3 7.195185062458278 0.49468065502013325 20.28903256185502 0 -1 0
91 3 2.6287477714549157 6.315308430542485 16.391670948116673 0 0 0
50 2 7.243725708849376 1.4210925674578991 19.91380841870798 0 1 0
102 3 1.0645490338748262 0.5355634294939453 17.05838013341568 0 1 0
98 3 4.112905246816187 3.360544693475181 18.18902854227352 1 0 0
99 3 3.179717359467743 4.49704413488905 17.854427912744153 1 0 0
49 2 1.1925648161686047 7.738814346104184 16.487825157995633 1 -1 0
112 3 4.498811439018425 7.168774132864175 16.15360200543516 0 0 0
123 3 6.750572078507344 3.5395322672690357 16.937942654437975 0 1 0
68 2 5.4110461304705275 7.741250531314103 16.097913583044548 0 0 0
57 2 3.596184218665339 6.078683769218324 16.317907259560283 0 0 0
73 2 5.718123324982881 2.323279204968789 17.95480824635763 0 1 0
122 3 5.41440964507429 1.5661629943209983 17.43083386899983 0 1 0
117 3 3.5815414851311265 5.475050897321797 15.461028300882377 0 0 0
114 3 1.8302183086041817 2.534759741594706 18.130528587432263 0 1 0
77 3 8.188392706379503 1.5123910058838943 19.64039637525697 0 1 0
84 3 7.689413205203858 3.966844278475692 15.679147470666537 0 1 0
83 3 8.40054689456585 6.854485954992856 16.660151353543924 0 1 0
81 3 7.449316788201373 5.576820565474611 16.96558533740135 0 0 0
53 2 7.537748082166318 6.574136518175103 17.07706864675583 0 0 0
52 2 7.5860408526235705 3.9890483481882844 16.701025812475017 0 0 0
64 2 1.0698663937886232 1.8552299662981115 18.184817255156645 1 1 0
104 3 0.398372504205577 2.4544255279276492 17.75968103352927 1 1 0
82 3 6.691150869087277 7.053065444384909 16.636710691249014 0 0 0
59 2 3.201899082343126 4.21576925093014 14.519613485191758 -1 1 0
76 3 6.185274743359575 1.9888145932634682 18.77663511200234 0 1 0
74 3 5.756855073339902 7.7619436254771745 15.186700778770954 -1 -1 0

Velocities

1 0 0 0
2 0 0 0
3 0 0 0
4 0 0 0
5 0 0 0
6 0 0 0
7 0 0 0
8 0 0 0
9 0 0 0
10 0 0 0
11 0 0 0
12 0 0 0
13 0 0 0
14 0 0 0
15 0 0 0
16 0 0 0
17 0 0 0
18 0 0 0
19 0 0 0
20 0 0 0
21 0 0 0
22 0 0 0
23 0 0 0
24 0 0 0
25 0 0 0
26 0 0 0
27 0 0 0
28 0 0 0
29 0 0 0
30 0 0 0
31 0 0 0
32 0 0 0
33 0 0 0
34 0 0 0
35 0 0 0
36 0 0 0
37 0 0 0
38 0 0 0
39 0 0 0
40 0 0 0
41 0 0 0
42 0 0 0
43 0 0 0
44 0 0 0
45 0 0 0
46 0 0 0
47 0 0 0
48 0 0 0
125 3.097560167163467 1.4841250550875136 -3.5189050124517283
65 -0.684736478096788 -4.948110053773546 8.875651547015076
71 -2.3401523467607817 -4.475753457772014 -4.27077817638258
119 -8.624949152659894 -14.840095387243462 -2.8615331552776966
86 -10.603429972750703 11.836526684054222 -31.505158228865405
118 9.909325922397295 -1.5537608673131587 28.66684809370412
55 -0.6133756605247757 7.08838615607678 1.1096986623927094
106 -9.829246246000226 -39.34041319374861 -22.32538343470539
107 -3.26407122736022 -9.907333014453698 31.5374056498665
100 13.994762087130352 -20.38148559104487 17.119129813881532
92 -19.892165969063594 -8.900694288523653 3.269505585138827
101 -17.98260715729745 -4.465582488039796 16.67826962046144
121 -28.67586104493556 0.6959836809909133 8.126731788496816
62 4.533958498587769 -9.727237093666941 1.902338445696995
69 1.6722250420850067 -0.6643011276563359 -3.388929096874784
113 -4.994889979559427 8.158041029519437 -4.091060620867106
88 -14.751771932234611 22.024565263709505 26.086726188203762
85 39.704720305327776 32.066357715576544 -23.943042189835094
54 -9.396318938396297 -4.398395631896417 -3.3461984555296596
120 17.953010361451142 28.17561405606738 -10.529404721715967
110 24.69619609458218 4.47983036194639 -2.646443420041578
96 18.755503384743488 30.015513049041076 -10.718141739213786
58 -2.6020446727314193 5.186205986186105 -8.200720936856666
56 -4.439656548863271 0.05354129477284696 -4.7974090165992145
90 23.67883303953938 -29.64580934090453 18.630371114165264
89 12.138607655895209 4.577810440799297 2.5552997319882804
108 -6.010575049774554 -4.757769662932128 16.903679465739962
66 3.715912340629847 -6.598123595588449 4.009782530642382
87 10.651976717331872 -33.90831162665718 -54.913460852720526
60 3.695867293364464 -3.8230314109776122 -0.292506740201274
51 -3.014378819342312 -5.8400850863645255 1.9626749434792121
109 7.340522588769787 14.1392347507774 13.98795026325906
72 -2.3634212463815367 -2.1390340722083634 -1.2151926564607658
78 -4.7429302702548615 13.908884126636936 -7.429162465130398
67 1.6451642963294948 2.3013917800724126 5.697961135779249
115 -5.8276253137807155 35.25353737357458 -10.712657678879633
93 -2.0329672607549822 -13.794004782252886 -61.82110025179445
79 12.621790577130763 22.406660956722078 12.172982809423596
80 19.553003059966745 -5.303959702773646 3.8857771572816175
116 -12.624175525230994 -3.73352319032209 19.557220251022933
103 36.32124664339699 -25.44622191160445 9.349732045585995
97 -3.495810667088093 4.647150487934928 21.05451883070825
63 2.9453027530779083 6.504485515539108 3.862661631941781
124 13.215973300224421 13.429343345668318 -33.32263162137892
95 0.10699052649646074 21.914128412203265 4.2151347082415365
94 27.987767627192273 -16.437416864613954 11.71268467251754
70 -4.939464785167584 -9.102799863495644 -1.0560359307282836
111 18.02775542160585 -17.610882990358036 -9.688769338378945
61 -3.4101367676033845 3.403546884923965 -4.431445210077653
105 4.0536455464732795 -1.2140004126960928 2.3404409468914142
75 1.6545860493050266 -11.15294159238014 0.04767016295185127
91 12.409156244479503 -12.603083808598248 1.725658640076405
50 -4.093276574423074 -1.5519162145805032 -2.411354809246802
102 13.168516402869022 11.22568877900623 28.545578205258547
98 -16.648781824694932 4.940622634951858 1.2943980202359868
99 -23.81765284718275 11.046053819334078 -4.137561160162534
49 1.4759270952346448 -3.321762437002995 0.46572248984611625
112 11.29464859201611 23.131402075383434 -14.48026679736008
123 4.953490702228497 -22.2912649832016 2.273913371247229
68 -0.31927161972250806 -4.578043737187731 -2.3404605656131334
57 -2.0659239515964054 -5.929926351283774 4.105060279915766
73 -1.7670305001420603 -7.22326169051965 -3.2370078997509357
122 -10.714200038000289 30.687152282362362 -9.824166296490244
117 10.596944526712939 3.8231346622206512 26.242723028457345
114 -6.684072560024546 1.1920407335575922 -34.76694378730612
77 1.429891640705952 20.93015222669834 -14.531228428203379
84 -3.427314557390684 -9.468304853268297 16.28252223090495
83 24.699370483528902 12.018283689257135 4.329134698304422
81 -17.417627086905377 -11.492563338646955 -5.920380125701159
53 -4.0693840351419786 0.017766364612278318 -3.642668247643075
52 -0.25223347422099257 -6.588961467688278 2.901153087404782
64 2.6568668155264157 8.57853392639003 -3.7447441448222225
104 -4.748818722495344 -0.28558221500492315 -18.33780911866058
82 -13.249110408151422 -18.825575479476008 1.0916785457988758
59 -3.0491989457021087 3.846083947802523 -5.360753344072177
76 -25.69072441915155 -4.486449385991857 -13.042032914418735
74 -13.163601516741187 25.050441490592384 -4.22463671586534
