LAMMPS (2 Aug 2023)
OMP_NUM_THREADS environment is not set. Defaulting to 1 thread. (src/comm.cpp:98)
  using 1 OpenMP thread(s) per MPI task
Loaded 1 plugins from /work/home/baoergen22b/apprepo/deepmd/v2.2.9-dtk23.10/app/lib/deepmd_lmp
Reading data file ...
  orthogonal box = (0 0 0) to (8.496 8.01 29.014999)
  1 by 1 by 4 MPI processor grid
  reading atoms ...
  125 atoms
  read_data CPU = 0.006 seconds
Summary of lammps deepmd module ...
  >>> Info of deepmd-kit:
  installed to:       /work/home/wys974137909/shangcheng/deepmd-kit/20240715/deepmd-kit_v2.2.9/install
  source:             v2.2.9
  source branch:      HEAD
  source commit:      be43748
  source commit at:   2024-02-04 13:44:12 +0800
  support model ver.: 1.1 
  build variant:      rocm
  build with tf inc:  /work/home/wys974137909/shangcheng/miniconda3/envs/deepmd-kit-v2.2.9/lib/python3.8/site-packages/tensorflow/include;/work/home/wys974137909/shangcheng/miniconda3/envs/deepmd-kit-v2.2.9/lib/python3.8/site-packages/tensorflow/include
  build with tf lib:  /work/home/wys974137909/shangcheng/miniconda3/envs/deepmd-kit-v2.2.9/lib/python3.8/site-packages/tensorflow/lib/libtensorflow_cc.so
  set tf intra_op_parallelism_threads: 0
  set tf inter_op_parallelism_threads: 0
  >>> Info of lammps module:
  use deepmd-kit at:  /work/home/wys974137909/shangcheng/deepmd-kit/20240715/deepmd-kit_v2.2.9/install
  source:             v2.2.9
  source branch:      HEAD
  source commit:      be43748
  source commit at:   2024-02-04 13:44:12 +0800
  build float prec:   double
  build with tf inc:  /work/home/wys974137909/shangcheng/miniconda3/envs/deepmd-kit-v2.2.9/lib/python3.8/site-packages/tensorflow/include;/work/home/wys974137909/shangcheng/miniconda3/envs/deepmd-kit-v2.2.9/lib/python3.8/site-packages/tensorflow/include
  build with tf lib:  /work/home/wys974137909/shangcheng/miniconda3/envs/deepmd-kit-v2.2.9/lib/python3.8/site-packages/tensorflow/lib/libtensorflow_cc.so
INVALID_ARGUMENT: Tensor spin_attr/ntypes_spin:0, specified in either feed_devices or fetch_devices was not found in the Graph
INVALID_ARGUMENT: Tensor spin_attr/ntypes_spin:0, specified in either feed_devices or fetch_devices was not found in the Graph
INVALID_ARGUMENT: Tensor spin_attr/ntypes_spin:0, specified in either feed_devices or fetch_devices was not found in the Graph
INVALID_ARGUMENT: Tensor spin_attr/ntypes_spin:0, specified in either feed_devices or fetch_devices was not found in the Graph
  >>> Info of model(s):
  using   1 model(s): graph-compress.pb 
  rcut in model:      6
  ntypes in model:    4
48 atoms in group fixed
77 atoms in group mobile

CITE-CITE-CITE-CITE-CITE-CITE-CITE-CITE-CITE-CITE-CITE-CITE-CITE

Your simulation uses code contributions which should be cited:
- GPU package (short-range, long-range and three-body potentials): doi:10.1016/j.cpc.2010.12.021, doi:10.1016/j.cpc.2011.10.012, doi:10.1016/j.cpc.2013.08.002, doi:10.1016/j.commatsci.2014.10.068, doi:10.1016/j.cpc.2016.10.020, doi:10.3233/APC200086
- USER-DEEPMD package:
The log file lists these citations in BibTeX format.

CITE-CITE-CITE-CITE-CITE-CITE-CITE-CITE-CITE-CITE-CITE-CITE-CITE

Generated 0 of 6 mixed pair_coeff terms from geometric mixing rule
Neighbor list info ...
  update: every = 1 steps, delay = 0 steps, check = yes
  max neighbors/atom: 2000, page size: 100000
  master list distance cutoff = 8
  ghost atom cutoff = 8
  binsize = 4, bins = 3 3 8
  1 neighbor lists, perpetual/occasional/extra = 1 0 0
  (1) pair deepmd, perpetual
      attributes: full, newton on
      pair build: full/bin/atomonly
      stencil: full/bin/3d
      bin: standard
Setting up Verlet run ...
  Unit style    : metal
  Current step  : 0
  Time step     : 0.0005
colvars: Creating proxy instance
colvars: ----------------------------------------------------------------------
colvars: Initializing the collective variables module, version 2023-05-01.
colvars: Please cite Fiorin et al, Mol Phys 2013:
colvars:   https://doi.org/10.1080/00268976.2013.813594
colvars: as well as all other papers listed below for individual features used.
colvars: This version was built with the C++11 standard or higher.
colvars: Using LAMMPS interface, version "2023-04-12".
colvars: ----------------------------------------------------------------------
colvars: Reading new configuration from file "pmf.in":
colvars: # units = "" [default]
colvars: # smp = on [default]
colvars: # colvarsTrajFrequency = 100 [default]
colvars: # colvarsRestartFrequency = 0 [default]
colvars: # scriptedColvarForces = off [default]
colvars: # scriptingAfterBiases = off [default]
colvars: ----------------------------------------------------------------------
colvars:   Initializing a new collective variable.
colvars:   # name = "cn_H_Fe"
colvars:   Initializing a new "coordNum" component.
colvars:     # name = "" [default]
colvars:     # componentCoeff = 1 [default]
colvars:     # componentExp = 1 [default]
colvars:     # period = 0 [default]
colvars:     # wrapAround = 0 [default]
colvars:     # forceNoPBC = off [default]
colvars:     # scalable = on [default]
colvars:       Initializing atom group "group1".
colvars:       # name = "" [default]
colvars:       # centerToOrigin = off [default]
colvars:       # centerToReference = off [default]
colvars:       # rotateToReference = off [default]
colvars:       # atomsOfGroup = "" [default]
colvars:       # indexGroup = "" [default]
colvars:       # psfSegID =  [default]
colvars:       # atomsFile = "" [default]
colvars:       # dummyAtom = ( 0 , 0 , 0 ) [default]
colvars:       # enableFitGradients = on [default]
colvars:       # printAtomIDs = off [default]
colvars:       Atom group "group1" defined with 1 atoms requested.
colvars:       Initializing atom group "group2".
colvars:       # name = "" [default]
colvars:       # centerToOrigin = off [default]
colvars:       # centerToReference = off [default]
colvars:       # rotateToReference = off [default]
colvars:       # atomsOfGroup = "" [default]
colvars:       # indexGroup = "" [default]
colvars:       # psfSegID =  [default]
colvars:       # atomsFile = "" [default]
colvars:       # dummyAtom = ( 0 , 0 , 0 ) [default]
colvars:       # enableFitGradients = on [default]
colvars:       # printAtomIDs = off [default]
colvars:       Atom group "group2" defined with 48 atoms requested.
colvars:     # cutoff = 2.5
colvars:     # cutoff3 = ( 4 , 4 , 4 ) [default]
colvars:     # expNumer = 6 [default]
colvars:     # expDenom = 12 [default]
colvars:     # group2CenterOnly = off [default]
colvars:     # tolerance = 0 [default]
colvars:   All components initialized.
colvars:   # timeStepFactor = 1 [default]
colvars:   # width = 0.1
colvars:   # lowerBoundary = 0
colvars:   # upperBoundary = 6
colvars:   # hardLowerBoundary = on
colvars:   # hardUpperBoundary = off [default]
colvars:   # expandBoundaries = off [default]
colvars:   # extendedLagrangian = off [default]
colvars:   # outputValue = on [default]
colvars:   # outputVelocity = off [default]
colvars:   # outputTotalForce = off [default]
colvars:   # outputAppliedForce = off [default]
colvars:   # subtractAppliedForce = off [default]
colvars:   # runAve = off [default]
colvars:   # corrFunc = off [default]
colvars: ----------------------------------------------------------------------
colvars:   Initializing a new collective variable.
colvars:   # name = "cn_H_O"
colvars:   Initializing a new "coordNum" component.
colvars:     # name = "" [default]
colvars:     # componentCoeff = 1 [default]
colvars:     # componentExp = 1 [default]
colvars:     # period = 0 [default]
colvars:     # wrapAround = 0 [default]
colvars:     # forceNoPBC = off [default]
colvars:     # scalable = on [default]
colvars:       Initializing atom group "group1".
colvars:       # name = "" [default]
colvars:       # centerToOrigin = off [default]
colvars:       # centerToReference = off [default]
colvars:       # rotateToReference = off [default]
colvars:       # atomsOfGroup = "" [default]
colvars:       # indexGroup = "" [default]
colvars:       # psfSegID =  [default]
colvars:       # atomsFile = "" [default]
colvars:       # dummyAtom = ( 0 , 0 , 0 ) [default]
colvars:       # enableFitGradients = on [default]
colvars:       # printAtomIDs = off [default]
colvars:       Atom group "group1" defined with 1 atoms requested.
colvars:       Initializing atom group "group2".
colvars:       # name = "" [default]
colvars:       # centerToOrigin = off [default]
colvars:       # centerToReference = off [default]
colvars:       # rotateToReference = off [default]
colvars:       # atomsOfGroup = "" [default]
colvars:       # indexGroup = "" [default]
colvars:       # psfSegID =  [default]
colvars:       # atomsFile = "" [default]
colvars:       # dummyAtom = ( 0 , 0 , 0 ) [default]
colvars:       # enableFitGradients = on [default]
colvars:       # printAtomIDs = off [default]
colvars:       Atom group "group2" defined with 25 atoms requested.
colvars:     # cutoff = 2.5
colvars:     # cutoff3 = ( 4 , 4 , 4 ) [default]
colvars:     # expNumer = 6 [default]
colvars:     # expDenom = 12 [default]
colvars:     # group2CenterOnly = off [default]
colvars:     # tolerance = 0 [default]
colvars:   All components initialized.
colvars:   # timeStepFactor = 1 [default]
colvars:   # width = 0.1
colvars:   # lowerBoundary = 0
colvars:   # upperBoundary = 7
colvars:   # hardLowerBoundary = off [default]
colvars:   # hardUpperBoundary = off [default]
colvars:   # expandBoundaries = off [default]
colvars:   # extendedLagrangian = off [default]
colvars:   # outputValue = on [default]
colvars:   # outputVelocity = off [default]
colvars:   # outputTotalForce = off [default]
colvars:   # outputAppliedForce = off [default]
colvars:   # subtractAppliedForce = off [default]
colvars:   # runAve = off [default]
colvars:   # corrFunc = off [default]
colvars: ----------------------------------------------------------------------
colvars: Collective variables initialized, 2 in total.
colvars: ----------------------------------------------------------------------
colvars:   Initializing a new "metadynamics" instance.
colvars:   # name = "meta2d"
colvars:   # colvars = { cn_H_Fe, cn_H_O }
colvars:   # stepZeroData = off [default]
colvars:   # outputEnergy = off [default]
colvars:   # outputFreq = 0 [default]
colvars:   # timeStepFactor = 1 [default]
colvars:   # writeTISamples = off [default]
colvars:   # writeTIPMF = off [default]
colvars:   # hillWeight = 0.1
colvars:   # newHillFrequency = 300
colvars:   # gaussianSigmas =  [default]
colvars:   # hillWidth = 1
colvars:   Half-widths of the Gaussian hills (sigma's):
colvars:   cn_H_Fe: 0.05
colvars:   cn_H_O: 0.05
colvars:   # multipleReplicas = off [default]
colvars:   # useGrids = on [default]
colvars:   # gridsUpdateFrequency = 300 [default]
colvars:   # rebinGrids = off [default]
colvars:   # writeFreeEnergyFile = on [default]
colvars:   # keepHills = off [default]
colvars:   # keepFreeEnergyFiles = off [default]
colvars:   # writeHillsTrajectory = off [default]
colvars:   # wellTempered = off [default]
colvars:   # biasTemperature = 800
colvars:   # ebMeta = off [default]
colvars: ----------------------------------------------------------------------
colvars: Collective variables biases initialized, 1 in total.
colvars: ----------------------------------------------------------------------
colvars: Collective variables module (re)initialized.
colvars: ----------------------------------------------------------------------
colvars: Re-initialized atom group for variable "cn_H_Fe":0/0. 1 atoms: total mass = 1.008, total charge = 0.
colvars: Re-initialized atom group for variable "cn_H_Fe":0/1. 48 atoms: total mass = 2680.56, total charge = 0.
colvars: Re-initialized atom group for variable "cn_H_O":0/0. 1 atoms: total mass = 1.008, total charge = 0.
colvars: Re-initialized atom group for variable "cn_H_O":0/1. 25 atoms: total mass = 399.975, total charge = 4.17884e-309.
colvars: The restart output state file will be "rest.colvars.state".
colvars: The final output state file will be "out.colvars.state".
Per MPI rank memory allocation (min/avg/max) = 2.961 | 3.082 | 3.131 Mbytes
   Step          Temp         c_mTemp         PotEng         KinEng         TotEng         Press     
         0   182.7371       298.15        -759.03821      2.9289573     -756.10926     -11863.679    
        50   301.94055      492.63985     -760.94654      4.8395811     -756.10696     -14718.592    
       100   359.06809      585.84793     -761.87734      5.7552359     -756.1221      -12994.658    
       150   325.69992      531.40514     -761.35458      5.2204024     -756.13418     -12909.045    
       200   315.78599      515.22977     -761.21435      5.0614993     -756.15285     -11932.708    
       250   303.53296      495.23799     -761.0328       4.8651046     -756.1677      -15861.796    
       300   282.01188      460.12464     -760.71631      4.5201591     -756.19615     -18594.295    
       350   301.45997      491.85575     -760.99916      4.8318782     -756.16728     -14400.276    
       400   259.47256      423.34997     -760.34146      4.1588931     -756.18257     -18865.725    
       450   314.63696      513.35505     -761.27718      5.0430824     -756.2341      -13821.566    
       500   291.14923      475.03295     -760.94538      4.666615      -756.27876     -15846.853    
       550   248.87258      406.05527     -760.29333      3.988994      -756.30434     -20641.557    
       600   293.09452      478.20685     -761.07985      4.6977945     -756.38206     -18724.61     
       650   279.60862      456.20353     -760.89529      4.481639      -756.41365     -15502.021    
       700   303.56238      495.28599     -761.33325      4.8655762     -756.46768     -16217.236    
       750   262.37539      428.08616     -760.72377      4.2054205     -756.51835     -18669.976    
       800   316.24977      515.98647     -761.64908      5.0689329     -756.58015     -18787.95     
       850   274.3902       447.68928     -761.02575      4.3979969     -756.62776     -19652.241    
       900   277.53794      452.82505     -761.12145      4.4484496     -756.673       -17875.675    
       950   273.59765      446.39617     -761.06036      4.3852938     -756.67507     -17793.281    
      1000   247.76788      404.25286     -760.70551      3.9712875     -756.73422     -15171.579    
      1050   251.01465      409.55022     -760.84294      4.0233276     -756.81961     -19726.977    
      1100   262.38714      428.10533     -761.08371      4.2056088     -756.87811     -19451.673    
      1150   308.22402      502.89183     -761.84975      4.9402942     -756.90946     -20733.055    
      1200   260.45377      424.95089     -761.09758      4.1746202     -756.92296     -17447.522    
      1250   246.17763      401.65823     -760.91123      3.9457985     -756.96543     -18733.672    
      1300   258.16077      421.20968     -761.12225      4.1378674     -756.98439     -18603.715    
      1350   243.17844      396.76482     -760.89609      3.8977267     -756.99836     -14955.678    
      1400   288.15897      470.15411     -761.70256      4.6186863     -757.08387     -19795.802    
      1450   248.86828      406.04825     -761.11204      3.9889251     -757.12312     -11199.505    
      1500   246.72037      402.54376     -761.07822      3.9544977     -757.12372     -16289.841    
      1550   277.08973      452.09377     -761.59649      4.4412657     -757.15522     -19563.945    
      1600   285.61968      466.01106     -761.77569      4.5779859     -757.19771     -12373.415    
      1650   264.76877      431.99115     -761.48098      4.2437821     -757.23719     -20185.735    
      1700   257.682        420.42852     -761.41503      4.1301935     -757.28484     -19282.942    
      1750   273.41014      446.09022     -761.70603      4.3822882     -757.32374     -14857.248    
      1800   263.48253      429.89255     -761.66467      4.223166      -757.4415      -23227.48     
      1850   291.63228      475.82108     -761.98524      4.6743574     -757.31088     -11656.279    
      1900   289.30029      472.01626     -761.98776      4.6369796     -757.35078     -20782.141    
      1950   306.71156      500.42413     -762.30819      4.916052      -757.39214     -15271.958    
      2000   261.68933      426.96681     -761.61656      4.1944241     -757.42213     -15120.16     
      2050   264.62343      431.75402     -761.71118      4.2414526     -757.46972     -19858.03     
      2100   280.31716      457.35957     -761.99136      4.4929957     -757.49836     -15351.014    
      2150   270.98317      442.13044     -761.81063      4.3433882     -757.46724     -15617.964    
      2200   254.83746      415.78743     -761.52297      4.0846005     -757.43837     -16451.753    
      2250   271.37049      442.76237     -761.837        4.3495962     -757.4874      -18997.778    
      2300   274.43085      447.7556      -761.78267      4.3986484     -757.38402     -20628.229    
      2350   293.19539      478.37143     -761.79762      4.6994114     -757.0982      -20242.203    
      2400   287.65777      469.33636     -761.76889      4.6106529     -757.15824     -14551.092    
      2450   264.19325      431.05215     -761.36         4.2345576     -757.12544     -21671.359    
      2500   294.57946      480.62965     -761.85886      4.7215957     -757.13726     -18162.137    
      2550   264.0484       430.81581     -761.43156      4.2322359     -757.19932     -12395.493    
      2600   245.68944      400.86172     -761.22587      3.9379737     -757.2879      -19954.345    
      2650   269.56175      439.81128     -761.64747      4.3206053     -757.32687     -12671.48     
      2700   281.70814      459.62907     -761.88372      4.5152908     -757.36843     -23622.752    
      2750   281.00844      458.48746     -761.92234      4.5040758     -757.41827     -11483.04     
      2800   254.84531      415.80023     -761.53636      4.0847263     -757.45164     -20422.469    
      2850   239.79134      391.23851     -761.37059      3.8434375     -757.52715     -17635.462    
      2900   253.96183      414.35877     -761.60594      4.0705657     -757.53537     -18599.648    
      2950   257.92862      420.83091     -761.73695      4.1341465     -757.60281     -16307.246    
      3000   264.26812      431.1743      -761.70014      4.2357576     -757.46438     -18596.31     
      3050   235.80218      384.72988     -761.19291      3.7794982     -757.41341     -15629.176    
      3100   296.73489      484.14641     -762.23221      4.7561434     -757.47607     -16779.901    
      3150   283.50235      462.55646     -762.08369      4.5440488     -757.53964     -8577.5301    
      3200   279.66252      456.29149     -762.09138      4.4825031     -757.60888     -21018.753    
      3250   288.82186      471.23567     -762.30429      4.6293113     -757.67498     -17503.71     
      3300   235.90046      384.89023     -761.46671      3.7810735     -757.68564     -9731.1693    
      3350   262.23901      427.86365     -761.82592      4.2032346     -757.62268     -17043.156    
      3400   256.69837      418.82365     -761.82842      4.1144277     -757.71399     -15994.401    
      3450   271.94346      443.69723     -762.01592      4.35878       -757.65714     -13726.664    
      3500   219.66907      358.40744     -761.18116      3.5209126     -757.66025     -15229.939    
      3550   225.57006      368.03536     -761.37911      3.6154951     -757.76361     -14006.834    
      3600   285.3396       465.55408     -762.39874      4.5734967     -757.82525     -15130.204    
      3650   295.80725      482.63287     -762.30264      4.7412748     -757.56137     -15096.534    
      3700   302.69653      493.87328     -762.4428       4.8516981     -757.5911      -9756.4722    
      3750   290.71314      474.32145     -762.27797      4.6596253     -757.61834     -13436.957    
      3800   284.59314      464.33617     -762.2343       4.5615322     -757.67277     -15231.842    
      3850   283.55135      462.63641     -762.28715      4.5448341     -757.74232     -11670.428    
      3900   274.9847       448.65925     -762.20489      4.4075257     -757.79736     -12442.583    
      3950   254.99201      416.0396      -761.92688      4.0870778     -757.8398      -14986.535    
      4000   282.99168      461.72327     -762.3131       4.5358637     -757.77724     -13574.756    
      4050   237.68385      387.79996     -761.61244      3.809658      -757.80278     -16698.071    
      4100   266.60783      434.99172     -762.28885      4.2732591     -758.01559     -16365.711    
      4150   258.1637       421.21445     -762.09091      4.1379143     -757.953       -16999.44     
      4200   317.09193      517.36052     -763.11183      5.0824313     -758.0294      -19870.491    
      4250   256.09332      417.83647     -762.12874      4.1047298     -758.02401     -11057.42     
      4300   251.44932      410.25942     -762.01863      4.0302946     -757.98833     -18468.318    
      4350   243.14033      396.70264     -762.01685      3.8971159     -758.11973     -13017.635    
      4400   260.05232      424.29589     -762.21553      4.1681856     -758.04734     -12028.232    
      4450   297.89065      486.03212     -762.7417       4.7746682     -757.96703     -17896.39     
      4500   273.49722      446.2323      -762.34325      4.3836839     -757.95957     -12219.734    
      4550   249.51856      407.10923     -762.02632      3.9993479     -758.02698     -19057.578    
      4600   274.67644      448.1563      -762.44969      4.4025849     -758.0471      -9741.9512    
      4650   287.0759       468.38699     -762.61687      4.6013266     -758.01554     -19022.148    
      4700   280.05105      456.9254      -762.56575      4.4887305     -758.07702     -16572.558    
      4750   260.91964      425.711       -762.50051      4.1820874     -758.31842     -15457.003    
      4800   247.50295      403.8206      -762.29882      3.9670411     -758.33178     -17424.7      
      4850   254.31954      414.9424      -762.39381      4.0762991     -758.31751     -13251.961    
      4900   270.60338      441.51078     -762.73809      4.3373008     -758.40079     -18681.536    
      4950   255.32098      416.57634     -762.32413      4.0923506     -758.23178     -12423.244    
      5000   244.22202      398.46751     -762.06647      3.9144536     -758.15202     -18589.194    
      5050   270.94613      442.07        -762.54975      4.3427945     -758.20696     -16373.97     
      5100   271.18691      442.46285     -762.68037      4.3466537     -758.33372     -20180.776    
      5150   274.31464      447.566       -762.5728       4.3967859     -758.17602     -16063.352    
      5200   262.72113      428.65026     -762.42249      4.210962      -758.21152     -15129.488    
      5250   256.76564      418.93342     -762.43093      4.115506      -758.31543     -18009.989    
      5300   216.94565      353.96396     -761.78372      3.4772609     -758.30646     -18408.111    
      5350   252.67276      412.25555     -762.41082      4.0499041     -758.36092     -17889.131    
      5400   234.99025      383.40515     -762.07851      3.7664844     -758.31203     -22235.834    
      5450   280.90887      458.32501     -762.50659      4.5024799     -758.00411     -20873.183    
      5500   270.5825       441.47672     -762.10992      4.3369662     -757.77296     -15399.64     
      5550   282.85799      461.50515     -762.36294      4.5337209     -757.82922     -17042.544    
      5600   296.85642      484.34469     -762.60011      4.7580913     -757.84202     -16599.849    
      5650   326.5794       532.84007     -763.06459      5.2344988     -757.83009     -19844.605    
      5700   288.05751      469.98858     -762.50289      4.6170601     -757.88583     -14963.866    
      5750   254.80386      415.73261     -761.99529      4.084062      -757.91123     -16448.644    
      5800   258.84802      422.33097     -762.25522      4.1488828     -758.10634     -16302.108    
      5850   230.50617      376.08901     -761.85225      3.6946123     -758.15763     -19471.187    
      5900   250.18655      408.1991      -762.43517      4.0100545     -758.42512     -13056.891    
      5950   256.60436      418.67028     -762.46143      4.1129209     -758.34851     -18059.742    
      6000   269.62488      439.91427     -762.60782      4.3216171     -758.2862      -16954.404    
      6050   279.23995      455.60202     -762.63449      4.4757299     -758.15876     -17578.486    
      6100   265.713        433.53174     -762.50871      4.2589165     -758.24979     -14556.727    
      6150   278.58441      454.53245     -762.7907       4.4652227     -758.32548     -15366.291    
      6200   246.21597      401.7208      -762.54734      3.9464131     -758.60093     -18374.759    
      6250   271.3217       442.68278     -762.98433      4.3488142     -758.63551     -17429.13     
      6300   287.29454      468.74372     -763.19752      4.604831      -758.59269     -15302.945    
      6350   310.71201      506.95117     -763.40908      4.9801722     -758.42891     -15675.627    
      6400   263.95406      430.66189     -762.94008      4.2307238     -758.70936     -15471.642    
      6450   272.70713      444.94322     -762.79928      4.3710203     -758.42826     -14321.088    
      6500   276.9963       451.94133     -763.00906      4.4397681     -758.56929     -18438.48     
      6550   237.06536      386.79085     -762.37883      3.7997447     -758.57908     -19095.142    
      6600   293.34649      478.61796     -763.36828      4.7018333     -758.66645     -16114.761    
      6650   226.3155       369.25161     -762.38134      3.6274433     -758.75389     -12415.256    
      6700   245.12199      399.93588     -762.65628      3.9288785     -758.7274      -16997.715    
      6750   283.12         461.93263     -763.21271      4.5379204     -758.67479     -17345.645    
      6800   246.92026      402.8699      -762.74188      3.9577016     -758.78418     -16687.872    
      6850   272.68673      444.90992     -763.19763      4.3706932     -758.82693     -17832.314    
      6900   270.77525      441.7912      -763.35757      4.3400556     -759.01751     -14336.171    
      6950   247.62661      404.02236     -763.03531      3.9690231     -759.06628     -19573.749    
      7000   276.20707      450.65364     -763.48133      4.4271182     -759.05421     -13292.478    
      7050   236.59837      386.02892     -762.77548      3.7922598     -758.98322     -16095.993    
      7100   238.62642      389.33784     -762.79051      3.8247657     -758.96574     -15929.093    
      7150   241.74529      394.42652     -762.8444       3.8747559     -758.96964     -16986.8      
      7200   260.35131      424.78372     -763.0552       4.172978      -758.88222     -20204.426    
      7250   275.73346      449.88091     -763.38824      4.4195271     -758.96872     -14467.304    
      7300   227.93079      371.88708     -762.71337      3.6533335     -759.06003     -14300.922    
      7350   293.35009      478.62383     -763.69936      4.7018909     -758.99747     -18923.051    
      7400   239.9634       391.51923     -762.84861      3.8461952     -759.00242     -13964.993    
      7450   243.49712      397.28477     -762.93233      3.9028347     -759.02949     -16636.686    
      7500   263.9264       430.61676     -763.30061      4.2302804     -759.07032     -18261.101    
      7550   269.65897      439.9699      -763.35395      4.3221636     -759.03179     -15592.077    
      7600   245.03754      399.79809     -763.06467      3.9275249     -759.13715     -16605.062    
      7650   239.54327      390.83375     -762.98933      3.8394613     -759.14987     -17499.719    
      7700   232.63067      379.5553      -762.795        3.7286643     -759.06633     -17177.251    
      7750   243.84944      397.85962     -762.79134      3.9084818     -758.88286     -14482.556    
      7800   240.30775      392.08106     -762.73172      3.8517146     -758.88        -17043.443    
      7850   241.26962      393.65043     -762.73749      3.8671317     -758.87036     -21568.009    
      7900   267.65389      436.69845     -763.01804      4.2900256     -758.72801     -14154.251    
      7950   266.04488      434.07322     -762.93776      4.2642359     -758.67352     -16942.052    
      8000   262.36999      428.07735     -763.03959      4.2053338     -758.83426     -20905.286    
      8050   232.50901      379.3568      -762.77559      3.7267144     -759.04887     -14876.212    
      8100   227.65273      371.43341     -762.8472       3.6488768     -759.19832     -17643.94     
      8150   259.83143      423.93549     -763.30782      4.1646452     -759.14317     -15828.872    
      8200   225.86426      368.51538     -762.82139      3.6202107     -759.20117     -16809.964    
      8250   252.42948      411.85863     -763.22102      4.0460049     -759.17501     -13373.9      
      8300   247.55133      403.89954     -763.3852       3.9678166     -759.41738     -15633.345    
      8350   222.68197      363.32321     -762.90989      3.569204      -759.34068     -18314.869    
      8400   260.1062       424.3838      -763.29116      4.1690493     -759.12212     -18333.145    
      8450   244.75704      399.34043     -762.97096      3.9230289     -759.04793     -16400.621    
      8500   226.99519      370.36057     -762.83996      3.6383375     -759.20163     -15397.439    
      8550   220.53591      359.82176     -762.85419      3.5348065     -759.31938     -20860.223    
      8600   233.55594      381.06495     -763.12345      3.7434948     -759.37996     -14925.373    
      8650   222.70145      363.355       -763.09269      3.5695163     -759.52317     -17226.582    
      8700   233.15102      380.40429     -763.25246      3.7370046     -759.51545     -16962.51     
      8750   217.53958      354.93301     -762.78395      3.4867806     -759.29717     -16237.675    
      8800   260.49876      425.0243      -763.4558       4.1753414     -759.28046     -20673.825    
      8850   246.89775      402.83317     -763.34298      3.9573408     -759.38564     -18228.83     
      8900   217.83733      355.41879     -763.16672      3.4915528     -759.67517     -17309.278    
      8950   242.61018      395.83767     -763.47931      3.8886186     -759.59069     -16060.5      
      9000   261.27518      426.29108     -763.64491      4.1877859     -759.45713     -16261.882    
      9050   217.2544       354.46771     -762.90494      3.4822096     -759.42273     -16831.416    
      9100   232.6464       379.58098     -763.2152       3.7289166     -759.48628     -17711.028    
      9150   218.95279      357.23876     -763.08171      3.5094318     -759.57227     -15237.354    
      9200   229.93068      375.15006     -763.18252      3.6853883     -759.49713     -17901.267    
      9250   265.86108      433.77334     -763.61794      4.26129       -759.35665     -15765.854    
      9300   237.39007      387.32064     -763.16883      3.8049492     -759.36389     -19314.78     
      9350   275.81355      450.01158     -763.64871      4.4208107     -759.2279      -17244.998    
      9400   271.0387       442.22104     -763.80813      4.3442782     -759.46385     -14902.319    
      9450   245.72085      400.91296     -763.58889      3.9384771     -759.65041     -21071.349    
      9500   244.02112      398.13972     -763.6866       3.9112335     -759.77537     -20940.259    
      9550   222.6034       363.19502     -763.28386      3.5679447     -759.71592     -13935.358    
      9600   254.04954      414.50189     -763.78566      4.0719716     -759.71369     -24112.717    
      9650   243.07604      396.59774     -763.57694      3.8960854     -759.68086     -21334.685    
      9700   230.84273      376.63814     -763.25012      3.7000068     -759.55012     -17167.5      
      9750   230.71132      376.42373     -763.10544      3.6979005     -759.40754     -19194.091    
      9800   239.72658      391.13284     -763.51361      3.8423995     -759.67121     -20624.953    
      9850   214.60522      350.14536     -763.16733      3.4397478     -759.72758     -17308.843    
      9900   230.30369      375.75865     -763.46748      3.6913669     -759.77612     -25839.412    
      9950   236.01057      385.06988     -763.66483      3.7828384     -759.88199     -19691.652    
     10000   218.96794      357.26348     -763.3584       3.5096746     -759.84873     -17775.96     
     10050   227.32436      370.89764     -763.53285      3.6436135     -759.88924     -19400.785    
     10100   230.64666      376.31823     -763.55021      3.6968641     -759.85334     -20469.974    
     10150   244.3006       398.59572     -763.69187      3.9157131     -759.77616     -17075.979    
     10200   221.1505       360.82451     -763.56392      3.5446573     -760.01927     -18159.955    
     10250   239.30044      390.43757     -763.86385      3.8355693     -760.02828     -19277.098    
     10300   265.31744      432.88634     -764.2206       4.2525763     -759.96802     -18479.107    
     10350   219.52954      358.17978     -763.58702      3.5186762     -760.06835     -16825.737    
     10400   210.31176      343.14024     -763.51618      3.3709312     -760.14525     -20465.608    
     10450   221.40283      361.23619     -763.92229      3.5487016     -760.37359     -17304.14     
     10500   209.51075      341.83334     -763.66282      3.3580924     -760.30473     -22084.578    
     10550   242.71933      396.01574     -763.99662      3.890368      -760.10625     -18214.165    
     10600   233.71402      381.32287     -763.7434       3.7460286     -759.99737     -18579.331    
     10650   220.33611      359.49576     -763.54435      3.531604      -760.01275     -17815.231    
     10700   235.34163      383.97846     -763.72676      3.7721164     -759.95464     -18732.729    
     10750   206.44417      336.82996     -763.25884      3.3089404     -759.9499      -16515.368    
     10800   232.33806      379.07789     -763.73118      3.7239744     -760.0072      -19619.521    
     10850   251.06401      409.63075     -763.99451      4.0241187     -759.97039     -13779.553    
     10900   217.10161      354.21842     -763.50819      3.4797607     -760.02843     -18257.557    
     10950   245.90369      401.21128     -764.06878      3.9414078     -760.12738     -20391.876    
     11000   210.9176       344.12871     -763.63052      3.3806416     -760.24988     -16105.257    
     11050   222.74164      363.42058     -763.8225       3.5701605     -760.25234     -18326.4      
     11100   205.80739      335.791       -763.58523      3.2987339     -760.28649     -18140.217    
     11150   201.94897      329.49568     -763.49646      3.2368902     -760.25957     -17900.839    
     11200   194.4764       317.30359     -763.24886      3.1171179     -760.13174     -20327.955    
     11250   211.86986      345.68241     -763.66226      3.3959048     -760.26636     -16852.526    
     11300   236.16602      385.3235      -763.87387      3.7853299     -760.08854     -18998.663    
     11350   210.82837      343.98312     -763.50544      3.3792114     -760.12623     -15957.278    
     11400   218.45392      356.42482     -763.65294      3.5014359     -760.15151     -16014.109    
     11450   257.35416      419.89364     -764.15038      4.1249389     -760.02544     -17009.129    
     11500   220.70499      360.09761     -763.60658      3.5375165     -760.06906     -12684.954    
     11550   218.53142      356.55126     -763.66722      3.502678      -760.16454     -16333.773    
     11600   231.14686      377.13436     -763.86385      3.7048816     -760.15897     -16997.735    
     11650   229.47957      374.41403     -763.90741      3.6781577     -760.22925     -18686.031    
     11700   174.95004      285.44481     -763.08851      2.8041444     -760.28437     -18801.797    
     11750   226.39194      369.37633     -763.97864      3.6286685     -760.34997     -16781.426    
     11800   198.95487      324.61058     -763.4598       3.1889        -760.2709      -19235.76     
     11850   187.46186      305.85883     -763.35006      3.0046871     -760.34537     -18028.844    
     11900   246.74257      402.57998     -764.39079      3.9548535     -760.43594     -20039.698    
     11950   244.0489       398.18504     -764.18059      3.9116787     -760.26891     -14549.88     
     12000   227.43658      371.08074     -764.24236      3.6454122     -760.59695     -18661.525    
     12050   250.17011      408.17229     -764.45407      4.0097911     -760.44427     -15370.467    
     12100   223.44409      364.56667     -764.0724       3.5814195     -760.49098     -16998.27     
     12150   225.1402       367.33401     -764.07076      3.6086052     -760.46215     -16368.568    
     12200   208.02027      339.40149     -763.82737      3.3342025     -760.49316     -18968.404    
     12250   240.37673      392.19362     -764.45205      3.8528203     -760.59923     -13071.67     
     12300   233.07294      380.27691     -764.13846      3.7357533     -760.40271     -17950.818    
     12350   219.86988      358.73507     -763.63691      3.5241312     -760.11278     -17959.52     
     12400   244.80487      399.41847     -764.37066      3.9237956     -760.44686     -16360.409    
     12450   214.73893      350.36352     -763.8695       3.441891      -760.42761     -19874.346    
     12500   209.64533      342.05291     -764.22816      3.3602495     -760.86791     -15675.944    
     12550   194.12991      316.73828     -764.12384      3.1115643     -761.01228     -18867.742    
     12600   198.11507      323.24038     -764.13712      3.1754395     -760.96168     -17223.539    
     12650   199.45976      325.43434     -764.12544      3.1969925     -760.92845     -18731.688    
     12700   182.16948      297.22389     -763.90141      2.9198594     -760.98155     -14863.207    
     12750   197.57416      322.35784     -764.21146      3.1667696     -761.04469     -19674.155    
     12800   182.54501      297.8366      -764.10049      2.9258785     -761.17461     -17620.547    
     12850   173.14789      282.50444     -764.13333      2.775259      -761.35807     -24440.5      
     12900   228.54456      372.88849     -764.6172       3.6631711     -760.95403     -18520.664    
     12950   183.58909      299.54009     -763.90709      2.9426133     -760.96447     -15159.21     
     13000   168.3934       274.74712     -763.35905      2.6990528     -760.65999     -15030.116    
     13050   219.13556      357.53696     -764.21782      3.5123612     -760.70546     -23127.599    
     13100   231.41335      377.56915     -764.53087      3.7091529     -760.82172     -19666.936    
     13150   216.8378       353.788       -764.31231      3.4755323     -760.83678     -14288.128    
     13200   206.09692      336.2634      -764.09349      3.3033747     -760.79012     -19799.821    
     13250   181.53074      296.18173     -763.71883      2.9096215     -760.80921     -14641.297    
     13300   204.34857      333.41083     -764.04368      3.2753517     -760.76833     -19350.718    
     13350   203.20096      331.53841     -764.05807      3.2569575     -760.80111     -16742.096    
     13400   180.56674      294.60889     -763.72267      2.8941703     -760.8285      -21526.078    
     13450   205.8908       335.92709     -764.26669      3.3000709     -760.96662     -19198.275    
     13500   163.25308      266.36028     -763.62559      2.6166624     -761.00892     -14978.801    
     13550   213.76663      348.77713     -764.36829      3.4263066     -760.94199     -17106.37     
     13600   230.80165      376.57111     -764.26881      3.6993483     -760.56947     -19110.749    
     13650   190.01909      310.03115     -763.3477       3.045675      -760.30202     -19370.698    
     13700   195.19336      318.47337     -762.75072      3.1286095     -759.62211     -16237.322    
     13750   200.01718      326.34383     -762.85875      3.205927      -759.65282     -13958.788    
     13800   177.74148      289.99926     -763.42468      2.8488863     -760.57579     -18072.144    
     13850   253.51097      413.62316     -764.38445      4.0633393     -760.32112     -19331.776    
     13900   176.98457      288.76429     -763.15438      2.8367543     -760.31763     -16669.396    
     13950   192.15206      313.51126     -763.46032      3.0798628     -760.38046     -17596.295    
     14000   220.71959      360.12144     -763.83309      3.5377505     -760.29534     -16505.13     
     14050   240.63902      392.62157     -764.18863      3.8570244     -760.3316      -20696.572    
     14100   222.08202      362.34435     -763.92208      3.5595879     -760.36249     -17920.293    
     14150   223.22095      364.2026      -763.90361      3.5778429     -760.32577     -17904.293    
     14200   220.37035      359.55162     -763.89271      3.5321527     -760.36056     -18111.085    
     14250   191.83464      312.99336     -763.46226      3.0747751     -760.38749     -17397.474    
     14300   187.03235      305.15804     -763.421        2.9978027     -760.42319     -17668.313    
     14350   182.76393      298.19378     -763.38639      2.9293874     -760.457       -16780.297    
     14400   197.23396      321.80277     -763.65651      3.1613167     -760.49519     -18494.508    
     14450   201.41434      328.62339     -763.67271      3.2283209     -760.44439     -13185.772    
     14500   226.44219      369.45832     -764.10733      3.6294739     -760.47786     -16267.425    
     14550   192.44778      313.99375     -763.5767       3.0846027     -760.4921      -17339.523    
     14600   201.60533      328.935       -763.77553      3.2313822     -760.54415     -18475.649    
     14650   223.08985      363.9887      -764.14932      3.5757417     -760.57358     -13323.817    
     14700   221.03114      360.62976     -764.14997      3.5427442     -760.60723     -21470.581    
     14750   225.95874      368.66953     -764.22944      3.6217251     -760.60771     -16934.032    
     14800   179.41695      292.73291     -763.52467      2.8757411     -760.64893     -15550.267    
     14850   200.97302      327.90336     -763.90505      3.2212475     -760.6838      -14515.857    
     14900   213.93336      349.04917     -764.18715      3.4289791     -760.75817     -19078.662    
     14950   215.69063      351.91628     -764.20902      3.457145      -760.75187     -17023.094    
     15000   237.06625      386.7923      -764.53088      3.799759      -760.73112     -14639.712    
     15050   239.95211      391.50081     -764.4918       3.8460143     -760.64579     -20271.597    
     15100   198.21788      323.40812     -763.84869      3.1770874     -760.6716      -19615.478    
     15150   218.29411      356.16407     -764.22198      3.4988743     -760.7231      -21107.624    
     15200   221.31652      361.09538     -764.29933      3.5473184     -760.75201     -18662.89     
     15250   196.18697      320.09453     -763.92418      3.1445353     -760.77965     -15211.169    
     15300   212.27879      346.3496      -764.23153      3.4024591     -760.82907     -16092.758    
     15350   239.44777      390.67795     -764.58048      3.8379307     -760.74255     -22926.748    
     15400   177.80112      290.09657     -763.62451      2.8498423     -760.77467     -18814.076    
     15450   205.71917      335.64707     -764.10037      3.29732       -760.80305     -19530.948    
     15500   227.26936      370.8079      -764.51706      3.6427319     -760.87433     -19237.865    
     15550   207.24593      338.13809     -764.21695      3.3217912     -760.89516     -20300.493    
     15600   184.79354      301.50525     -763.8974       2.9619185     -760.93549     -17861.766    
     15650   202.34575      330.14307     -764.16021      3.2432499     -760.91696     -18923.868    
     15700   194.10629      316.69974     -764.05972      3.1111857     -760.94854     -22836.995    
     15750   207.57664      338.67767     -764.30942      3.3270919     -760.98232     -17673.46     
     15800   225.08893      367.25035     -764.61637      3.6077834     -761.00858     -19306.995    
     15850   219.8855       358.76056     -764.56854      3.5243816     -761.04415     -18376.472    
     15900   217.39712      354.70057     -764.46541      3.4844971     -760.98091     -18418.682    
     15950   229.94231      375.16902     -764.56825      3.6855746     -760.88268     -21658.919    
     16000   242.48261      395.62952     -764.84054      3.8865739     -760.95397     -19959.626    
     16050   205.49093      335.27468     -764.2503       3.2936617     -760.95664     -20101.98     
     16100   210.97038      344.21483     -764.36699      3.3814877     -760.9855      -21720.285    
     16150   190.40381      310.65885     -764.07856      3.0518414     -761.02672     -20462.541    
     16200   173.01762      282.29191     -763.83499      2.7731711     -761.06182     -20934.201    
     16250   177.67291      289.88738     -763.9          2.8477873     -761.05221     -21823.944    
     16300   209.63681      342.03901     -764.40051      3.3601129     -761.0404      -20777.478    
     16350   185.97491      303.43274     -764.08018      2.9808538     -761.09932     -21832.628    
     16400   221.56527      361.50123     -764.68832      3.5513053     -761.13701     -15962.624    
     16450   191.96167      313.20062     -764.25599      3.0768112     -761.17918     -19773.244    
     16500   191.07931      311.76098     -764.2996       3.0626685     -761.23693     -20435.532    
     16550   210.80068      343.93796     -764.52844      3.3787677     -761.14967     -17827.72     
     16600   190.78537      311.28139     -764.23975      3.0579571     -761.1818      -18825.619    
     16650   168.36991      274.7088      -763.90048      2.6986763     -761.20181     -18087.522    
     16700   169.96714      277.31481     -763.92977      2.7242772     -761.2055      -17234.486    
     16750   201.13956      328.17507     -764.42534      3.2239168     -761.20142     -19707.984    
     16800   184.84708      301.5926      -764.15172      2.9627766     -761.18895     -23489.206    
     16850   196.36996      320.39309     -764.28359      3.1474684     -761.13612     -19215.529    
     16900   202.86975      330.99801     -764.39441      3.2516487     -761.14276     -23189.741    
     16950   177.26638      289.22409     -764.00031      2.8412712     -761.15904     -17491.402    
     17000   180.84112      295.05657     -764.09412      2.8985682     -761.19555     -17363.247    
     17050   195.45577      318.90151     -764.37846      3.1328154     -761.24564     -17636.931    
     17100   218.0406       355.75046     -764.7654       3.494811      -761.27059     -19852.612    
     17150   200.52466      327.17182     -764.47748      3.214061      -761.26342     -23818.207    
     17200   189.52336      309.22232     -764.39608      3.0377293     -761.35835     -22177.814    
     17250   198.29256      323.52997     -764.57355      3.1782844     -761.39527     -24480.892    
     17300   198.17568      323.33926     -764.59775      3.1764109     -761.42134     -20741.784    
     17350   191.51173      312.46651     -764.4986       3.0695995     -761.429       -21545.878    
     17400   182.29574      297.4299      -764.38349      2.9218832     -761.46161     -22228.607    
     17450   204.8002       334.14769     -764.67443      3.2825904     -761.39184     -18914.141    
     17500   220.95015      360.49761     -764.95836      3.541446      -761.41692     -16525.522    
     17550   207.02834      337.78307     -764.77137      3.3183036     -761.45307     -17176.646    
     17600   191.09783      311.7912      -764.53617      3.0629654     -761.4732      -19650.026    
     17650   213.85636      348.92354     -764.93886      3.427745      -761.51111     -21473.138    
     17700   173.44395      282.98749     -764.30859      2.7800043     -761.52858     -19137.732    
     17750   173.36019      282.85084     -764.27139      2.7786619     -761.49273     -19697.592    
     17800   205.94257      336.01156     -764.75399      3.3009006     -761.45309     -18286.383    
     17850   197.54396      322.30856     -764.5822       3.1662855     -761.41591     -18389.541    
     17900   178.00654      290.43173     -764.30516      2.8531348     -761.45202     -17217.697    
     17950   168.20676      274.44261     -764.16545      2.6960614     -761.46939     -18904.185    
     18000   179.80078      293.35916     -764.37799      2.8818933     -761.49609     -21305.894    
     18050   201.99682      329.57376     -764.70683      3.2376571     -761.46917     -19253.772    
     18100   213.4907       348.32694     -764.69088      3.4218841     -761.26899     -15910.123    
     18150   208.78467      340.64867     -764.5259       3.3464545     -761.17945     -14922.404    
     18200   198.60452      324.03895     -764.27229      3.1832844     -761.08901     -18443.251    
     18250   214.96136      350.72643     -764.50591      3.4454562     -761.06045     -14541.481    
     18300   179.48622      292.84594     -764.00111      2.8768514     -761.12426     -16287.588    
     18350   191.83176      312.98867     -764.0957       3.074729      -761.02098     -18615.574    
     18400   195.6404       319.20277     -764.23276      3.1357749     -761.09698     -19348.963    
     18450   193.51576      315.73623     -764.25011      3.1017205     -761.14839     -20523.039    
     18500   218.33347      356.2283      -764.65618      3.4995052     -761.15667     -18604.843    
     18550   205.08585      334.61376     -764.54106      3.287169      -761.25389     -16037.221    
     18600   237.77587      387.9501      -764.99823      3.811133      -761.18709     -23539.262    
     18650   236.4087       385.71945     -765.02899      3.7892196     -761.23977     -18231.366    
     18700   184.87749      301.64221     -764.15974      2.963264      -761.19648     -15551.23     
     18750   196.18705      320.09466     -764.41169      3.1445367     -761.26715     -16430.987    
     18800   176.55443      288.06249     -764.13074      2.8298599     -761.30088     -20944.739    
     18850   196.68541      320.90777     -764.3691       3.1525245     -761.21658     -21008.723    
     18900   192.62839      314.28843     -764.34076      3.0874975     -761.25327     -20542.502    
     18950   205.74723      335.69285     -764.41981      3.2977697     -761.12204     -21949.595    
     19000   171.48437      279.79029     -763.94204      2.7485958     -761.19345     -23248.131    
     19050   186.07861      303.60195     -764.20312      2.982516      -761.22061     -16820.251    
     19100   206.88766      337.55356     -764.55774      3.3160488     -761.24169     -20942.107    
     19150   199.01333      324.70596     -764.45807      3.189837      -761.26823     -19803.176    
     19200   181.84158      296.68889     -764.20629      2.9146037     -761.29169     -22034.962    
     19250   214.45261      349.89636     -764.6693       3.4373018     -761.232       -18336.581    
     19300   201.02603      327.98984     -764.47611      3.2220971     -761.25402     -21507.996    
     19350   202.74986      330.8024      -764.45396      3.249727      -761.20424     -20106.153    
     19400   204.24322      333.23894     -764.49083      3.2736631     -761.21717     -21145.064    
     19450   209.53967      341.88052     -764.59028      3.3585559     -761.23172     -17600.367    
     19500   212.16576      346.16519     -764.63035      3.4006476     -761.2297      -20244.256    
     19550   221.09791      360.73869     -764.7328       3.5438143     -761.18898     -17872.896    
     19600   219.30347      357.81093     -764.70819      3.5150527     -761.19314     -14949.058    
     19650   206.01778      336.13427     -764.52242      3.3021061     -761.22032     -18149.852    
     19700   202.01765      329.60774     -764.46919      3.237991      -761.23119     -16074.014    
     19750   190.61076      310.9965      -764.34192      3.0551584     -761.28676     -13541.299    
     19800   193.8056       316.20913     -764.41539      3.1063661     -761.30903     -17929.205    
     19850   198.03701      323.11302     -764.44097      3.1741883     -761.26678     -13809.688    
     19900   215.33769      351.34045     -764.68936      3.4514881     -761.23787     -18552.964    
     19950   197.63214      322.45244     -764.39426      3.167699      -761.22656     -23294.389    
     20000   200.59913      327.29332     -764.51518      3.2152547     -761.29993     -19459.556    
     20050   207.47869      338.51786     -764.64211      3.3255219     -761.31659     -20203.599    
     20100   204.29247      333.3193      -764.60851      3.2744525     -761.33405     -18587.051    
     20150   211.45052      344.99822     -764.60985      3.3891835     -761.22067     -18732.575    
     20200   213.80414      348.83834     -764.65754      3.426908      -761.23063     -16492.528    
     20250   234.4747       382.56398     -765.00232      3.7582209     -761.2441      -20015.725    
     20300   185.68984      302.96763     -764.2873       2.9762846     -761.31101     -13817.141    
     20350   194.26057      316.95146     -764.48175      3.1136585     -761.36809     -17307.322    
     20400   223.18333      364.14123     -764.97054      3.57724       -761.3933      -21020.212    
     20450   212.87806      347.32735     -764.82735      3.4120644     -761.41529     -16590.079    
     20500   183.64366      299.62913     -764.37429      2.9434879     -761.4308      -17190.72     
     20550   190.4014       310.65492     -764.49076      3.0518028     -761.43896     -17235.816    
     20600   213.96863      349.10671     -764.8835       3.4295444     -761.45396     -15320.97     
     20650   246.61028      402.36414     -765.49         3.9527332     -761.53726     -19883.58     
     20700   193.16556      315.16485     -764.62698      3.0961074     -761.53088     -13774.845    
     20750   232.04173      378.59441     -765.08515      3.7192247     -761.36593     -22703.107    
     20800   202.12014      329.77497     -764.52386      3.2396338     -761.28423     -17533.018    
     20850   207.55516      338.64262     -764.58681      3.3267476     -761.26007     -18130.069    
     20900   183.99042      300.1949      -764.29622      2.949046      -761.34718     -21219.761    
     20950   179.6459       293.10647     -764.25606      2.8794108     -761.37665     -16540.02     
     21000   200.0724       326.43391     -764.61877      3.206812      -761.41196     -20603.542    
     21050   201.83355      329.30736     -764.60878      3.2350401     -761.37374     -16156.388    
     21100   210.25527      343.04808     -764.6947       3.3700258     -761.32468     -22430.624    
     21150   240.94802      393.12572     -765.22582      3.861977      -761.36384     -18738.28     
     21200   218.16705      355.95677     -764.89345      3.4968378     -761.39661     -16955.118    
     21250   205.44919      335.20657     -764.71406      3.2929926     -761.42106     -16239.74     
     21300   212.79317      347.18885     -764.89338      3.4107038     -761.48268     -17002.947    
     21350   204.94976      334.39172     -764.79187      3.2849876     -761.50688     -19061.541    
     21400   199.61396      325.68594     -764.67608      3.1994641     -761.47661     -17053.582    
     21450   204.5226       333.69477     -764.78007      3.278141      -761.50193     -16101.566    
     21500   190.82144      311.34025     -764.58505      3.0585353     -761.52652     -18504.918    
     21550   190.83132      311.35636     -764.61361      3.0586936     -761.55491     -15265.171    
     21600   198.1897       323.36215     -764.76026      3.1766357     -761.58362     -18942.874    
     21650   195.2417       318.55225     -764.66771      3.1293844     -761.53833     -18295.783    
     21700   201.80747      329.26482     -764.80069      3.2346222     -761.56607     -18227.885    
     21750   205.23899      334.86362     -764.87759      3.2896235     -761.58797     -17121.612    
     21800   180.84665      295.06559     -764.5531       2.8986567     -761.65444     -25047.058    
     21850   189.9081       309.85006     -764.71944      3.0438961     -761.67554     -19055.929    
     21900   187.69381      306.23728     -764.71828      3.0084049     -761.70988     -19205.073    
     21950   189.52429      309.22385     -764.68329      3.0377443     -761.64555     -22508.217    
     22000   196.46382      320.54624     -764.81989      3.1489728     -761.67092     -20214.329    
     22050   194.54012      317.40757     -764.81563      3.1181392     -761.69749     -20262.872    
     22100   199.95621      326.24433     -764.92508      3.2049496     -761.72013     -13241.032    
     22150   217.15337      354.30287     -765.22734      3.4805903     -761.74675     -19864.879    
     22200   221.71741      361.74945     -765.32651      3.5537438     -761.77276     -17521.348    
     22250   209.61246      341.99928     -765.11033      3.3597226     -761.7506      -18354.206    
     22300   202.90578      331.0568      -765.12276      3.2522262     -761.87054     -19229.226    
     22350   193.06835      315.00626     -764.93021      3.0945494     -761.83566     -13960.962    
     22400   186.38953      304.10923     -764.8645       2.9874994     -761.877       -23928.23     
     22450   196.44979      320.52334     -765.08238      3.1487479     -761.93363     -15399.511    
     22500   203.21329      331.55852     -764.96305      3.257155      -761.7059      -20624.623    
     22550   198.80003      324.35794     -764.8002       3.1864181     -761.61378     -18207.787    
     22600   207.71705      338.90676     -764.86764      3.3293424     -761.53829     -16137.841    
     22650   215.67234      351.88645     -765.04988      3.4568519     -761.59303     -18343.008    
     22700   209.86405      342.40976     -765.03351      3.3637551     -761.66975     -22134.028    
     22750   233.79886      381.46129     -765.48002      3.7473884     -761.73263     -15051.592    
     22800   214.00177      349.16078     -765.15556      3.4300756     -761.72549     -19726.566    
     22850   196.32096      320.31314     -764.8593       3.1466829     -761.71262     -21717.032    
     22900   216.11081      352.60184     -765.10639      3.4638798     -761.64251     -17429.268    
     22950   184.03968      300.27526     -764.57067      2.9498354     -761.62083     -13813.05     
     23000   195.15345      318.40827     -764.72533      3.1279699     -761.59736     -17581.402    
     23050   200.17216      326.59668     -764.72865      3.208411      -761.52024     -12687.214    
     23100   181.67833      296.42254     -764.40697      2.9119872     -761.49498     -15079.693    
     23150   238.95526      389.87437     -765.36046      3.8300365     -761.53043     -15887.847    
     23200   189.86965      309.78733     -764.53642      3.0432798     -761.49314     -13918.043    
     23250   243.82648      397.82216     -765.32407      3.9081138     -761.41596     -17310.071    
     23300   221.75297      361.80747     -764.98355      3.5543138     -761.42923     -18989.807    
     23350   202.71944      330.75277     -764.70814      3.2492395     -761.45891     -16388.004    
     23400   190.84678      311.38158     -764.56303      3.0589414     -761.50409     -12165.368    
     23450   193.07782      315.0217      -764.52374      3.0947011     -761.42904     -19835.841    
     23500   196.38874      320.42373     -764.60555      3.1477694     -761.45778     -13597.869    
     23550   211.39367      344.90545     -764.86975      3.3882722     -761.48148     -14067.764    
     23600   209.22456      341.36639     -764.92147      3.3535052     -761.56796     -18197.328    
     23650   202.23169      329.95697     -764.89757      3.2414217     -761.65614     -17482.416    
     23700   210.17348      342.91463     -764.87368      3.3687148     -761.50497     -15646.84     
     23750   226.0524       368.82233     -765.07276      3.6232262     -761.44954     -17546.326    
     23800   215.2115       351.13455     -764.96885      3.4494655     -761.51939     -11746.022    
     23850   216.88638      353.86726     -764.96839      3.4763109     -761.49208     -16264.069    
     23900   244.4521       398.8429      -765.36343      3.9181414     -761.44528     -14981.43     
     23950   234.43615      382.50109     -765.28538      3.7576031     -761.52778     -16958.54     
     24000   232.9763       380.11922     -765.20466      3.7342042     -761.47045     -14549.189    
     24050   232.86966      379.94523     -765.05339      3.7324949     -761.3209      -20840.515    
     24100   192.61778      314.27112     -764.45631      3.0873275     -761.36898     -14663.565    
     24150   214.15895      349.41723     -764.87121      3.4325948     -761.43862     -23955.236    
     24200   185.24322      302.23893     -764.49771      2.9691261     -761.52858     -18841.869    
     24250   213.96984      349.10868     -764.9642       3.4295637     -761.53464     -20869.681    
     24300   212.15075      346.1407      -764.97216      3.400407      -761.57175     -16306.554    
     24350   202.38251      330.20305     -764.80909      3.2438392     -761.56525     -21194.315    
     24400   214.47358      349.93058     -765.05688      3.4376379     -761.61924     -15686.419    
     24450   230.13054      375.47614     -765.29087      3.6885916     -761.60228     -18753.079    
     24500   215.14818      351.03124     -765.0912       3.4484505     -761.64275     -18195.049    
     24550   216.17966      352.71419     -765.19778      3.4649834     -761.73279     -20835.111    
     24600   199.18854      324.99182     -764.95831      3.1926453     -761.76566     -19251.496    
     24650   212.52565      346.75237     -765.1776       3.4064159     -761.77119     -18121.441    
     24700   205.13283      334.69041     -765.12533      3.2879219     -761.83741     -15853.968    
     24750   208.28172      339.82807     -765.24022      3.3383931     -761.90183     -20091.762    
     24800   175.42016      286.21184     -764.73368      2.8116795     -761.922       -18670.601    
     24850   175.18568      285.82927     -764.75565      2.8079213     -761.94773     -22937.242    
     24900   202.06018      329.67713     -765.20237      3.2386727     -761.9637      -15083.527    
     24950   201.91296      329.43693     -765.15095      3.236313      -761.91464     -19134.638    
     25000   194.85318      317.91835     -765.06028      3.123157      -761.93713     -22421.923    
     25050   220.31821      359.46656     -765.48288      3.5313172     -761.95157     -18645.043    
     25100   191.85549      313.02738     -765.04112      3.0751093     -761.96601     -22148.394    
     25150   205.93393      335.99746     -765.31251      3.3007622     -762.01175     -16940.15     
     25200   191.94535      313.174       -765.10928      3.0765496     -762.03273     -18027.22     
     25250   213.66697      348.61454     -765.47446      3.4247094     -762.04975     -17682.01     
     25300   202.59228      330.5453      -765.33859      3.2472014     -762.09138     -17156.717    
     25350   194.36043      317.11439     -765.23493      3.1152591     -762.11967     -17534.22     
     25400   188.2987       307.2242      -765.05659      3.0181002     -762.03849     -17764.37     
     25450   184.77382      301.47308     -765.00508      2.9616025     -762.04348     -20606.999    
     25500   180.98457      295.29062     -764.89977      2.9008674     -761.99891     -14398.906    
     25550   194.96703      318.1041      -765.13163      3.1249818     -762.00664     -20040.103    
     25600   196.05003      319.87109     -765.19267      3.1423404     -762.05033     -13856.134    
     25650   189.39733      309.01669     -765.0875       3.0357092     -762.05179     -21069.712    
     25700   199.62452      325.70317     -765.18965      3.1996333     -761.99002     -16978.684    
     25750   205.34157      335.03099     -765.32851      3.2912677     -762.03725     -20896.348    
     25800   207.89343      339.19455     -765.37656      3.3321695     -762.04439     -17673.437    
     25850   200.92339      327.82238     -765.24193      3.220452      -762.02148     -21993.27     
     25900   216.8494       353.80691     -765.5279       3.4757181     -762.05218     -14638.905    
     25950   207.89266      339.19328     -765.38975      3.3321571     -762.0576      -19865.757    
     26000   187.81794      306.4398      -765.07362      3.0103944     -762.06322     -18975.173    
     26050   210.91294      344.12111     -765.39467      3.380567      -762.01411     -15050.102    
     26100   198.22658      323.42232     -765.25714      3.1772268     -762.07991     -17243.906    
     26150   212.40095      346.54892     -765.45376      3.4044172     -762.04935     -18288.362    
     26200   182.96945      298.5291      -765.05996      2.9326816     -762.12728     -19930.317    
     26250   203.56492      332.13223     -765.41636      3.262791      -762.15357     -16592.193    
     26300   201.15726      328.20394     -765.4419       3.2242004     -762.2177      -13650.982    
     26350   224.17907      365.76585     -765.84535      3.5932        -762.25215     -18341.751    
     26400   190.2392       310.39027     -765.22967      3.0492029     -762.18046     -17736.816    
     26450   218.84636      357.06511     -765.73352      3.5077259     -762.2258      -12553.652    
     26500   192.94685      314.80803     -765.29443      3.092602      -762.20182     -19445.553    
     26550   219.86281      358.72353     -765.71793      3.5240178     -762.19392     -18283.158    
     26600   198.24331      323.44961     -765.38692      3.1774949     -762.20942     -13895.139    
     26650   199.9692       326.26554     -765.43006      3.205158      -762.22491     -16020.169    
     26700   190.09159      310.14944     -765.30265      3.0468371     -762.25582     -13082.42     
     26750   196.97492      321.38013     -765.3976       3.1571648     -762.24044     -19408.614    
     26800   182.98193      298.54946     -765.12588      2.9328815     -762.193       -22808.069    
     26850   203.72532      332.39394     -765.49147      3.2653619     -762.2261      -14471.946    
     26900   187.49878      305.91906     -765.25609      3.0052788     -762.25081     -17887.994    
     26950   171.41069      279.67008     -765.00003      2.7474148     -762.25261     -15216.572    
     27000   174.71304      285.05811     -765.08395      2.8003456     -762.28361     -18686.476    
     27050   189.80419      309.68052     -765.45587      3.0422305     -762.41364     -19429.703    
     27100   177.2411       289.18285     -765.30176      2.8408661     -762.4609      -18836.072    
     27150   169.20628      276.0734      -765.13694      2.7120819     -762.42486     -14671.729    
     27200   178.03121      290.47197     -765.33485      2.8535301     -762.48132     -16647.413    
     27250   193.18429      315.19542     -765.59249      3.0964077     -762.49609     -18066.344    
     27300   187.72383      306.28626     -765.44245      3.0088861     -762.43357     -22251.723    
     27350   197.49373      322.22662     -765.56221      3.1654805     -762.39673     -15820.149    
     27400   190.37759      310.61606     -765.48263      3.0514211     -762.4312      -19029.871    
     27450   179.62606      293.07409     -765.37164      2.8790928     -762.49255     -20206.35     
     27500   190.48864      310.79725     -765.57245      3.053201      -762.51925     -15544.407    
     27550   203.73559      332.41071     -765.81144      3.2655267     -762.54591     -15814.419    
     27600   184.55346      301.11355     -765.52552      2.9580705     -762.56745     -16046.605    
     27650   185.85655      303.23963     -765.4986       2.9789567     -762.51965     -21349.04     
     27700   188.86247      308.14403     -765.56682      3.0271364     -762.53968     -14989.169    
     27750   172.51547      281.47262     -765.33631      2.7651225     -762.57119     -16425.774    
     27800   154.93858      252.79452     -765.08021      2.4833955     -762.59681     -20669.993    
     27850   171.66009      280.07699     -765.34267      2.7514122     -762.59125     -15249.855    
     27900   190.92741      311.51314     -765.6253       3.0602337     -762.56506     -18672.62     
     27950   161.5347       263.55662     -765.1286       2.5891199     -762.53948     -18715.117    
     28000   173.46041      283.01435     -765.30815      2.7802682     -762.52788     -14353.655    
     28050   199.68411      325.80039     -765.61523      3.2005884     -762.41464     -18402.827    
     28100   217.97825      355.64872     -765.96424      3.4938116     -762.47043     -18656.985    
     28150   198.78582      324.33476     -765.67145      3.1861904     -762.48526     -20390.101    
     28200   192.59168      314.22854     -765.53583      3.0869092     -762.44892     -18291.421    
     28250   170.37632      277.98242     -765.17028      2.7308356     -762.43945     -19483.246    
     28300   216.27171      352.86437     -765.86901      3.4664587     -762.40256     -18648.049    
     28350   180.92894      295.19984     -765.29598      2.8999757     -762.39601     -19943.38     
     28400   196.65584      320.85952     -765.59345      3.1520505     -762.4414      -19713.833    
     28450   178.98159      292.02259     -765.30822      2.868763      -762.43946     -18559.037    
     28500   174.58541      284.84988     -765.12564      2.7983        -762.32734     -17877.455    
     28550   193.10517      315.06634     -765.42197      3.0951396     -762.32683     -22080.568    
     28600   193.57296      315.82957     -765.42424      3.1026374     -762.32161     -20296.523    
     28650   206.48783      336.90119     -765.61602      3.3096402     -762.30638     -17504.754    
     28700   204.75014      334.06601     -765.60945      3.281788      -762.32766     -16917.474    
     28750   198.52833      323.91465     -765.54206      3.1820633     -762.36        -18350.434    
     28800   194.61606      317.53147     -765.47464      3.1193564     -762.35528     -19021.374    
     28850   195.8644       319.56823     -765.43524      3.1393651     -762.29587     -13048.077    
     28900   184.92263      301.71587     -765.33513      2.9639876     -762.37114     -21001.469    
     28950   186.41472      304.15033     -765.33552      2.9879032     -762.34762     -15928.81     
     29000   181.74172      296.52597     -765.32552      2.9130032     -762.41252     -20675.593    
     29050   192.53963      314.14361     -765.37181      3.0860749     -762.28574     -14804.495    
     29100   206.0558       336.19631     -765.62092      3.3027156     -762.31821     -21259.587    
     29150   196.21176      320.13498     -765.40614      3.1449327     -762.26121     -14991.809    
     29200   207.82181      339.07768     -765.64951      3.3310215     -762.31849     -21723.477    
     29250   199.67484      325.78526     -765.59172      3.2004398     -762.39128     -11914.128    
     29300   199.36075      325.27281     -765.56915      3.1954056     -762.37374     -15998.119    
     29350   206.70747      337.25956     -765.67774      3.3131607     -762.36458     -19644.344    
     29400   192.1698       313.5402      -765.49858      3.0801471     -762.41843     -19392.82     
     29450   195.44865      318.8899      -765.46936      3.1327013     -762.33666     -13694.161    
     29500   203.23677      331.59684     -765.64001      3.2575314     -762.38248     -16369.912    
     29550   188.62338      307.75393     -765.41416      3.0233041     -762.39086     -14737.268    
     29600   180.47661      294.46185     -765.19439      2.8927257     -762.30167     -21235.459    
     29650   198.45537      323.79561     -765.55355      3.1808939     -762.37266     -18679.708    
     29700   173.67292      283.36108     -765.08309      2.7836743     -762.29941     -14823.685    
     29750   190.43155      310.7041      -765.28565      3.052286      -762.23337     -19489.023    
     29800   172.13281      280.84827     -765.00172      2.7589891     -762.24273     -21573.69     
     29850   183.23398      298.9607      -765.20209      2.9369215     -762.26517     -17647.849    
     29900   179.04453      292.12528     -765.17791      2.8697719     -762.30814     -17711.758    
     29950   171.68525      280.11804     -765.16383      2.7518155     -762.41201     -21724.765    
     30000   191.11706      311.82257     -765.43768      3.0632736     -762.37441     -18448.18     
     30050   201.49269      328.75123     -765.58281      3.2295768     -762.35323     -21677.196    
     30100   188.26851      307.17494     -765.37098      3.0176162     -762.35336     -18915.575    
     30150   179.14889      292.29556     -765.32216      2.8714447     -762.45071     -13071.214    
     30200   178.94941      291.9701      -765.44296      2.8682474     -762.57471     -15174.342    
     30250   207.66488      338.82164     -765.79879      3.3285062     -762.47028     -17398.121    
     30300   198.11912      323.24699     -765.71259      3.1755044     -762.53708     -15578.624    
     30350   193.95749      316.45695     -765.52253      3.1088006     -762.41373     -20559.329    
     30400   175.33409      286.07141     -765.24586      2.8103        -762.43556     -18830.048    
     30450   177.89913      290.25647     -765.40893      2.8514131     -762.55752     -15233.863    
     30500   196.43616      320.5011      -765.7652       3.1485295     -762.61667     -18356.261    
     30550   194.30074      317.01699     -765.66738      3.1143023     -762.55307     -14881.339    
     30600   182.75356      298.17686     -765.53172      2.9292212     -762.6025      -19466.589    
     30650   186.36151      304.06352     -765.46189      2.9870504     -762.47484     -16953.652    
     30700   188.96614      308.31317     -765.4754       3.028798      -762.4466      -15251.604    
     30750   174.70873      285.05109     -765.35886      2.8002766     -762.55859     -16179.348    
     30800   180.00551      293.6932      -765.37133      2.8851747     -762.48616     -17751.816    
     30850   183.11719      298.77015     -765.49661      2.9350496     -762.56156     -17278.296    
     30900   211.74035      345.47109     -765.93715      3.3938289     -762.54332     -15705.224    
     30950   203.82103      332.5501      -765.66738      3.2668961     -762.40048     -22135.068    
     31000   213.18065      347.82107     -765.80355      3.4169145     -762.38664     -17805.888    
     31050   180.32662      294.21712     -765.18234      2.8903216     -762.29202     -22037.83     
     31100   218.67327      356.7827      -765.78856      3.5049516     -762.28361     -17178.702    
     31150   232.48621      379.31961     -765.94887      3.726349      -762.22252     -19370.953    
     31200   193.42704      315.59149     -765.32503      3.1002986     -762.22473     -18345.796    
     31250   209.54853      341.89497     -765.54006      3.3586979     -762.18136     -17728.903    
     31300   211.13598      344.48502     -765.61132      3.3841419     -762.22718     -18749.699    
     31350   214.99966      350.78892     -765.62488      3.44607       -762.17881     -13603.553    
     31400   190.64429      311.05122     -765.236        3.0556959     -762.1803      -23736.758    
     31450   204.9844       334.44823     -765.54772      3.2855428     -762.26218     -18516.779    
     31500   206.08406      336.24242     -765.44416      3.3031685     -762.14099     -15564.626    
     31550   178.32173      290.94599     -764.99346      2.8581868     -762.13527     -21649.464    
     31600   182.50099      297.76478     -765.09032      2.925173      -762.16515     -20240.867    
     31650   206.81527      337.43544     -765.46195      3.3148885     -762.14706     -17184.01     
     31700   190.81507      311.32986     -765.13917      3.0584332     -762.08073     -15662.105    
     31750   223.84993      365.22884     -765.68145      3.5879245     -762.09353     -17687.248    
     31800   186.54319      304.35994     -765.10721      2.9899624     -762.11724     -20785.09     
     31850   204.83811      334.20955     -765.42191      3.2831981     -762.13872     -12291.689    
     31900   208.47989      340.1514      -765.51885      3.3415695     -762.17728     -15496.404    
     31950   231.68544      378.01309     -765.85942      3.713514      -762.14591     -14441.148    
     32000   186.90691      304.95338     -765.16218      2.9957922     -762.16639     -17253.158    
     32050   192.32616      313.79531     -765.26972      3.0826533     -762.18707     -18767.201    
     32100   231.50347      377.71618     -765.92682      3.7105973     -762.21622     -15781.452    
     32150   209.91697      342.4961      -765.59452      3.3646033     -762.22991     -18231.11     
     32200   180.77931      294.95571     -765.08991      2.8975774     -762.19233     -22062.511    
     32250   205.93797      336.00405     -765.51399      3.3008269     -762.21316     -16378.165    
     32300   199.22244      325.04714     -765.39166      3.1931887     -762.19847     -24081.298    
     32350   201.79179      329.23923     -765.42482      3.2343708     -762.19045     -16858.044    
     32400   176.1799       287.45142     -764.99793      2.823857      -762.17408     -20553.474    
     32450   180.02826      293.73033     -764.7187       2.8855395     -761.83316     -22419.387    
     32500   207.13482      337.95681     -765.18004      3.3200103     -761.86002     -19270.521    
     32550   241.92839      394.72527     -765.68346      3.8776907     -761.80577     -18203.218    
     32600   200.59179      327.28134     -764.97641      3.2151369     -761.76128     -19951.761    
     32650   212.54875      346.79006     -765.07597      3.4067861     -761.66918     -16949.355    
     32700   204.17635      333.12984     -764.90289      3.2725912     -761.6303      -17010.22     
     32750   200.65623      327.38648     -764.77055      3.2161698     -761.55438     -22023.968    
     32800   211.75151      345.48931     -764.75913      3.3940078     -761.36512     -15512.57     
     32850   258.38504      421.57558     -765.46494      4.141462      -761.32348     -15936.929    
     32900   237.51933      387.53154     -765.20376      3.8070211     -761.39674     -17012.73     
     32950   221.0264       360.62202     -765.14189      3.5426682     -761.59922     -13353.325    
     33000   246.13989      401.59666     -765.27622      3.9451937     -761.33103     -19514.864    
     33050   232.73896      379.73198     -765.173        3.7304001     -761.4426      -13894.834    
     33100   224.44663      366.2024      -764.97024      3.5974885     -761.37275     -19021.018    
[...]
     91100   167.74073      273.68224     -764.73754      2.6885917     -762.04895     -12116.115    
     91150   202.56501      330.50081     -765.31718      3.2467643     -762.07042     -15717.754    
     91200   175.46509      286.28515     -764.90441      2.8123998     -762.09201     -16505.117    
     91250   225.83968      368.47526     -765.69638      3.6198166     -762.07656     -17734.881    
     91300   175.95056      287.07723     -764.93204      2.820181      -762.11186     -15422.466    
     91350   218.53177      356.55183     -765.62319      3.5026835     -762.1205      -16761.021    
     91400   196.01689      319.81704     -765.19483      3.1418094     -762.05302     -16418.862    
     91450   195.37376      318.76771     -765.19213      3.131501      -762.06063     -18324.091    
     91500   208.50114      340.18608     -765.40704      3.3419101     -762.06513     -17654.751    
     91550   216.25822      352.84236     -765.40386      3.4662425     -761.93762     -18718.815    
     91600   228.01784      372.02911     -765.56785      3.6547288     -761.91312     -16181.083    
     91650   231.54836      377.78943     -765.3767       3.7113169     -761.66538     -14174.667    
     91700   210.42809      343.33004     -765.08017      3.3727957     -761.70738     -14379.634    
     91750   228.32099      372.52372     -765.40335      3.6595877     -761.74376     -15950.332    
     91800   246.3112       401.87618     -765.73859      3.9479395     -761.79065     -21194.809    
     91850   189.75568      309.60137     -764.76892      3.041453      -761.72746     -16624.116    
     91900   192.44632      313.99136     -764.85656      3.0845792     -761.77198     -17634.339    
     91950   216.77817      353.69069     -765.32199      3.4745764     -761.84741     -21848.085    
     92000   206.20767      336.44409     -765.18584      3.3051497     -761.88069     -17386.391    
     92050   210.70997      343.78995     -765.36095      3.3773138     -761.98364     -23960.34     
     92100   219.38582      357.94529     -765.47627      3.5163726     -761.9599      -15587.251    
     92150   207.90598      339.21501     -765.32922      3.3323706     -761.99685     -18928.388    
     92200   187.45948      305.85494     -764.97148      3.0046489     -761.96683     -14730.101    
     92250   209.35588      341.58064     -765.36467      3.35561       -762.00906     -16037.214    
     92300   197.461        322.1732      -765.17013      3.1649558     -762.00518     -16971.226    
     92350   198.96993      324.63515     -765.31155      3.1891413     -762.12241     -20617.662    
     92400   183.48352      299.36785     -765.02042      2.9409212     -762.0795      -13608.234    
     92450   182.21367      297.29599     -764.90741      2.9205678     -761.98684     -18137.479    
     92500   191.22364      311.99647     -765.06801      3.0649819     -762.00302     -17091.798    
     92550   195.63694      319.19712     -765.18457      3.1357194     -762.04886     -16729.479    
     92600   209.98586      342.60851     -765.4056       3.3657075     -762.03989     -18331.528    
     92650   203.55463      332.11545     -765.31362      3.2626262     -762.05099     -16360.201    
     92700   215.70519      351.94005     -765.56027      3.4573784     -762.10289     -16914.161    
     92750   214.46951      349.92394     -765.43788      3.4375726     -762.0003      -17724.218    
     92800   200.6676       327.40504     -765.16924      3.2163521     -761.95289     -16946.049    
     92850   197.56439      322.3419      -764.8019       3.166613      -761.63529     -16341.692    
     92900   187.70298      306.25223     -764.60972      3.0085517     -761.60117     -15589.032    
     92950   208.92465      340.87705     -765.03377      3.3486981     -761.68507     -17897.571    
     93000   218.43441      356.39298     -765.12533      3.501123      -761.62421     -20028.792    
     93050   189.46431      309.12599     -764.46115      3.0367829     -761.42437     -18398.88     
     93100   232.3003       379.01628     -765.04923      3.7233692     -761.32586     -19838.04     
     93150   243.79948      397.7781      -765.3037       3.907681      -761.39602     -17441.719    
     93200   209.39002      341.63635     -764.62195      3.3561573     -761.26579     -16082.63     
     93250   208.45265      340.10696     -764.57272      3.3411329     -761.23159     -18672.229    
     93300   203.90379      332.68513     -764.61601      3.2682225     -761.34779     -17261.555    
     93350   215.60587      351.778       -764.68041      3.4557865     -761.22462     -20947.666    
     93400   208.71358      340.53268     -764.38832      3.345315      -761.04301     -17364.153    
     93450   217.90303      355.526       -764.43014      3.492606      -760.93754     -16885.416    
     93500   276.51524      451.15644     -765.41998      4.4320575     -760.98792     -15768.435    
     93550   200.2784       326.77003     -764.21058      3.2101139     -761.00047     -22388.366    
     93600   237.56256      387.60207     -764.86943      3.807714      -761.06171     -19412.678    
     93650   217.37207      354.6597      -764.54352      3.4840956     -761.05942     -15063.7      
     93700   210.75709      343.86684     -764.40561      3.3780691     -761.02754     -20328.937    
     93750   214.07296      349.27693     -764.58472      3.4312166     -761.1535      -20777.93     
     93800   268.00881      437.27754     -765.50732      4.2957144     -761.21161     -19842.693    
     93850   206.30499      336.60287     -764.73506      3.3067096     -761.42835     -22214.87     
     93900   223.86627      365.25549     -764.98232      3.5881863     -761.39413     -17050.15     
     93950   207.04381      337.80832     -764.56489      3.3185516     -761.24634     -15642.231    
     94000   193.00152      314.89722     -764.31447      3.0934782     -761.221       -16734.137    
     94050   226.90986      370.22135     -764.87775      3.6369697     -761.24078     -19544.708    
     94100   218.28868      356.15522     -764.82682      3.4987873     -761.32803     -19741.888    
     94150   201.50489      328.77114     -764.58665      3.2297724     -761.35688     -17330.424    
     94200   207.51056      338.56987     -764.81769      3.3260328     -761.49166     -19922.001    
     94250   202.45918      330.32813     -764.46024      3.2450679     -761.21518     -19395.156    
     94300   246.35343      401.94506     -764.90698      3.9486163     -760.95837     -14529.363    
     94350   230.4967       376.07356     -764.69105      3.6944605     -760.99659     -21047.042    
     94400   219.47829      358.09616     -764.45201      3.5178547     -760.93416     -14819.582    
     94450   204.25858      333.264       -764.22647      3.2739093     -760.95256     -18378.271    
     94500   208.06391      339.47269     -764.26939      3.334902      -760.93448     -12696.12     
     94550   237.40268      387.34122     -764.61804      3.8051515     -760.81288     -18349.568    
     94600   238.41809      388.99794     -764.49776      3.8214267     -760.67634     -21395.634    
     94650   221.73751      361.78226     -764.26713      3.5540661     -760.71307     -16317.225    
     94700   230.91652      376.75854     -764.45301      3.7011896     -760.75182     -23286.429    
     94750   244.29332      398.58384     -764.64091      3.9155964     -760.72531     -17299.919    
     94800   260.49366      425.01597     -764.60076      4.1752595     -760.4255      -16375.46     
     94850   242.84327      396.21797     -764.07496      3.8923546     -760.18261     -20335.178    
     94900   262.74771      428.69363     -764.48858      4.211388      -760.27719     -17861.291    
     94950   283.87609      463.16625     -764.97199      4.5500392     -760.42195     -15816.549    
     95000   241.04772      393.28839     -764.42435      3.8635751     -760.56078     -15497.613    
     95050   265.87765      433.80038     -764.72151      4.2615556     -760.45996     -12590.805    
     95100   231.16801      377.16886     -764.25965      3.7052205     -760.55443     -19767.594    
     95150   236.41877      385.73589     -764.28493      3.789381      -760.49555     -14320.024    
     95200   263.03471      429.1619      -764.75508      4.2159882     -760.53909     -17640.142    
     95250   245.05477      399.82621     -764.54905      3.9278011     -760.62124     -14849.295    
     95300   248.95065      406.18264     -764.58421      3.9902452     -760.59396     -14660.05     
     95350   237.8702       388.104       -764.35144      3.8126449     -760.5388      -23192.809    
     95400   221.29375      361.05822     -763.98865      3.5469533     -760.44169     -15135.031    
     95450   235.62926      384.44775     -764.08379      3.7767266     -760.30706     -17045.394    
     95500   240.85906      392.98057     -764.14564      3.8605511     -760.28509     -14798.927    
     95550   217.67068      355.1469      -763.79758      3.4888819     -760.3087      -20891.882    
     95600   230.03307      375.31712     -763.99943      3.6870294     -760.3124      -18118.611    
     95650   245.7565       400.97113     -764.34012      3.9390486     -760.40107     -18551.319    
     95700   227.69292      371.49898     -764.02239      3.6495209     -760.37287     -15527.145    
     95750   224.48373      366.26293     -763.9605       3.5980831     -760.36242     -22865.659    
     95800   242.86908      396.26009     -764.22449      3.8927683     -760.33172     -18638.139    
     95850   185.92274      303.34763     -763.4043       2.9800177     -760.42428     -19769.513    
     95900   210.34918      343.2013      -763.81079      3.371531      -760.43926     -15725.435    
     95950   202.64545      330.63205     -763.76546      3.2480536     -760.51741     -20183.593    
     96000   213.84062      348.89785     -763.97556      3.4274926     -760.54807     -17376.783    
     96050   181.92461      296.82436     -763.28417      2.9159345     -760.36824     -18324.742    
     96100   214.48382      349.94728     -763.839        3.437802      -760.4012      -16348.82     
     96150   220.67852      360.05443     -763.95638      3.5370923     -760.41929     -17637.171    
     96200   240.44265      392.30116     -764.23281      3.8538768     -760.37893     -18395.87     
     96250   224.48719      366.26858     -764.04839      3.5981386     -760.45025     -15604.651    
     96300   198.4533       323.79222     -763.59172      3.1808606     -760.41086     -19248.015    
     96350   212.94174      347.43127     -763.73914      3.4130852     -760.32606     -20917.737    
     96400   188.71097      307.89685     -763.41827      3.0247081     -760.39356     -16871.549    
     96450   226.40379      369.39566     -764.03062      3.6288584     -760.40176     -19352.877    
     96500   204.4129       333.51579     -763.80596      3.2763827     -760.52957     -19554.121    
     96550   212.19932      346.21995     -763.93635      3.4011855     -760.53516     -17866.845    
     96600   220.86335      360.35599     -763.99374      3.5400548     -760.45368     -14723.653    
     96650   199.86799      326.10041     -763.53832      3.2035357     -760.33478     -19709.254    
     96700   211.27033      344.70423     -763.80296      3.3862954     -760.41667     -15314.336    
     96750   199.5508       325.58288     -763.60655      3.1984517     -760.4081      -18487.473    
     96800   231.09994      377.0578      -764.12923      3.7041295     -760.4251      -12874.46     
     96850   221.12401      360.78129     -763.96045      3.5442327     -760.41622     -14133.046    
     96900   211.44216      344.98458     -763.82473      3.3890495     -760.43568     -13971.201    
     96950   210.76699      343.88299     -763.86298      3.3782277     -760.48475     -16336.619    
     97000   217.23167      354.43062     -764.04305      3.4818453     -760.5612      -15496.634    
     97050   206.64629      337.15974     -763.96163      3.3121801     -760.64945     -13428.751    
     97100   246.9884       402.98107     -764.38055      3.9587938     -760.42176     -19082.039    
     97150   228.93983      373.5334      -764.00321      3.6695066     -760.33371     -16122.349    
     97200   224.26017      365.89817     -764.0118       3.5944999     -760.4173      -13817.554    
     97250   251.77295      410.78745     -764.53661      4.0354818     -760.50113     -18120.352    
     97300   236.74973      386.27588     -764.23011      3.7946858     -760.43542     -20970.974    
     97350   215.64783      351.84647     -763.80822      3.4564591     -760.35176     -14815.21     
     97400   199.32295      325.21114     -763.63743      3.1947997     -760.44263     -19721.122    
     97450   195.0104       318.17486     -763.48965      3.125677      -760.36397     -17245.846    
     97500   246.16105      401.63119     -764.32374      3.9455328     -760.3782      -20173.77     
     97550   235.56414      384.34149     -764.20422      3.7756828     -760.42854     -19407.291    
     97600   240.70452      392.72843     -764.37322      3.8580742     -760.51514     -14813.288    
     97650   246.09115      401.51714     -764.35719      3.9444125     -760.41278     -23071.127    
     97700   260.87846      425.6438      -764.54889      4.1814272     -760.36746     -13983.857    
     97750   235.24681      383.82374     -764.18006      3.7705965     -760.40946     -22052.997    
     97800   187.99294      306.72532     -763.55236      3.0131993     -760.53916     -13844.216    
     97850   237.34284      387.24358     -764.18097      3.8041922     -760.37678     -16789.689    
     97900   228.72963      373.19044     -764.28597      3.6661374     -760.61983     -19086.3      
     97950   229.19609      373.95152     -764.35829      3.6736141     -760.68468     -18509.503    
     98000   203.75895      332.44881     -763.87454      3.265901      -760.60864     -17469.734    
     98050   224.4758       366.24998     -764.231        3.597956      -760.63305     -19339.973    
     98100   202.49133      330.3806      -763.88539      3.2455833     -760.63981     -17376.57     
     98150   225.05787      367.19969     -764.21559      3.6072856     -760.60831     -17043.484    
     98200   257.51524      420.15645     -764.69002      4.1275208     -760.5625      -18435.883    
     98250   235.43162      384.12527     -764.40374      3.7735587     -760.63018     -16025.19     
     98300   241.04837      393.28944     -764.47794      3.8635854     -760.61435     -12630.564    
     98350   231.17349      377.17781     -764.25634      3.7053084     -760.55104     -17811.809    
     98400   219.02684      357.35959     -764.14701      3.5106187     -760.63639     -16521.332    
     98450   214.53017      350.0229      -763.98823      3.4385448     -760.54969     -14074.94     
     98500   229.09497      373.78653     -764.20947      3.6719932     -760.53748     -18195.917    
     98550   240.07805      391.70629     -764.50975      3.8480329     -760.66172     -18925.796    
     98600   241.43555      393.92116     -764.53692      3.8697913     -760.66713     -18124.993    
     98650   225.5413       367.98844     -764.28033      3.6150341     -760.6653      -19120.41     
     98700   263.99903      430.73526     -764.89607      4.2314446     -760.66462     -18566.096    
     98750   260.4491       424.94327     -764.4835       4.1745454     -760.30895     -21317.231    
     98800   242.60936      395.83633     -764.09997      3.8886055     -760.21136     -16406.616    
     98850   233.34742      380.72473     -763.96454      3.7401526     -760.22439     -18081.143    
     98900   240.94509      393.12093     -764.14793      3.86193       -760.286       -20780.769    
     98950   238.66428      389.39961     -764.15484      3.8253726     -760.32947     -17366.496    
     99000   221.22868      360.95206     -763.85518      3.5459104     -760.30927     -16755.481    
     99050   225.78683      368.38904     -763.9094       3.6189696     -760.29043     -16808.768    
     99100   212.34908      346.46429     -763.75092      3.4035859     -760.34734     -21111.419    
     99150   259.77584      423.8448      -764.51792      4.1637542     -760.35417     -17422.047    
     99200   239.90867      391.42994     -764.26071      3.8453181     -760.41539     -12662.403    
     99250   270.53621      441.40118     -764.78969      4.3362241     -760.45347     -19021.845    
     99300   229.70163      374.77635     -764.22168      3.681717      -760.53997     -18929.007    
     99350   285.62356      466.01739     -765.00339      4.5780481     -760.42534     -14905.966    
     99400   252.80269      412.46755     -764.56465      4.0519868     -760.51266     -20713.6      
     99450   247.62333      404.01701     -764.44754      3.9689706     -760.47857     -22801.712    
     99500   230.51957      376.11088     -764.20805      3.6948271     -760.51322     -18704.059    
     99550   245.00392      399.74323     -764.5442       3.926986      -760.61722     -23878.801    
     99600   248.63165      405.66216     -764.52792      3.9851322     -760.54279     -19963.011    
     99650   244.25219      398.51674     -764.37918      3.9149372     -760.46425     -21426.374    
     99700   238.2206       388.67571     -764.29896      3.8182612     -760.4807      -15578.703    
     99750   243.95749      398.0359      -764.34946      3.9102136     -760.43924     -20675.186    
     99800   203.5496       332.10723     -763.76907      3.2625454     -760.50652     -14980.916    
     99850   251.01281      409.54721     -764.5534       4.023298      -760.53011     -20231.207    
     99900   244.34505      398.66824     -764.40254      3.9164255     -760.48611     -19234.123    
     99950   225.90892      368.58824     -764.02665      3.6209265     -760.40572     -19883.764    
    100000   237.94076      388.21913     -764.38138      3.8137759     -760.5676      -16233.261    
colvars: Saving collective variables state to "out.colvars.state".
Loop time of 462.71 on 4 procs for 100000 steps with 125 atoms

Performance: 9.336 ns/day, 2.571 hours/ns, 216.118 timesteps/s, 27.015 katom-step/s
130.0% CPU use with 4 MPI tasks x 1 OpenMP threads

MPI task timing breakdown:
Section |  min time  |  avg time  |  max time  |%varavg| %total
---------------------------------------------------------------
Pair    | 23.701     | 313.81     | 430        | 953.9 | 67.82
Neigh   | 0.011226   | 0.26488    | 0.47374    |  33.3 |  0.06
Comm    | 2.4534     | 27.637     | 58.008     | 377.2 |  5.97
Output  | 1.0849     | 1.2677     | 1.7209     |  23.3 |  0.27
Modify  | 6.0932     | 118.62     | 434.02     |1674.0 | 25.64
Other   |            | 1.113      |            |       |  0.24

Nlocal:          31.25 ave          48 max           0 min
Histogram: 1 0 0 0 0 0 1 0 0 2
Nghost:         685.75 ave        1020 max         306 min
Histogram: 1 0 0 0 1 0 1 0 0 1
Neighs:              0 ave           0 max           0 min
Histogram: 4 0 0 0 0 0 0 0 0 0
FullNghs:       4979.5 ave        9014 max           0 min
Histogram: 1 0 0 0 1 0 0 1 0 1

Total # of neighbors = 19918
Ave neighs/atom = 159.344
Neighbor list builds = 1451
Dangerous builds = 0
System init for write_data ...
Generated 0 of 6 mixed pair_coeff terms from geometric mixing rule

CITE-CITE-CITE-CITE-CITE-CITE-CITE-CITE-CITE-CITE-CITE-CITE-CITE

Your simulation uses code contributions which should be cited:
- Colvars module (Fiorin2013, plus other works listed for specific features)
The log file lists these citations in BibTeX format.

CITE-CITE-CITE-CITE-CITE-CITE-CITE-CITE-CITE-CITE-CITE-CITE-CITE

Total wall time: 0:08:05
