 # File generated with Atomsk by baoergen22b on 2025-09-15 08:01:44
  
         125  atoms
           4  atom types
 
      0.000000000000       8.496000000000  xlo xhi
      0.000000000000       8.010000000000  ylo yhi
      0.000000000000      29.014999000000  zlo zhi
 
Masses
 
            1   55.84500000             # Fe
            2   15.99900000             # O
            3   1.00800000              # H
            4   35.45000000             # Cl
 
Atoms # atomic
 
         1    1        0.238567680000       7.842270600000       0.041781598560
         2    1        0.222085440000       1.862965800000       2.030179480030
         3    1        0.188866080000       7.922771100000       4.022059161380
         4    1        0.125146080000       1.911186000000       6.251281534550
         5    1        1.576177920000       1.791436500000       0.042652048530
         6    1        1.616279040000       7.924773600000       2.042655929600
         7    1        1.586203200000       1.860002100000       4.172356856200
         8    1        1.566917280000       7.769299500000       5.987245043650
         9    1        3.172151520000       7.920127800000       0.052807298180
        10    1        2.982011040000       1.885473900000       2.002034931000
        11    1        3.077081280000       7.823767500000       4.122451057920
        12    1        3.032732160000       1.792317600000       6.036280391960
        13    1        4.464308160000       1.880027100000       0.015377949470
        14    1        4.401352800000       7.862776200000       2.046137729480
        15    1        4.360572000000       1.864247400000       4.015095561620
        16    1        4.493704320000       7.892253000000       6.208049186040
        17    1        5.909647680000       7.860453300000       0.057739848010
        18    1        5.857652160000       1.860162300000       1.990719081390
        19    1        5.820524640000       7.941834900000       4.055716560220
        20    1        5.867592480000       1.853113500000       5.934147595480
        21    1        7.339439520000       1.788633000000       0.100101746550
        22    1        7.310128320000       7.795171800000       2.011900030660
        23    1        7.347850560000       1.824758100000       4.034535610950
        24    1        7.349889600000       7.821604800000       5.922541595880
        25    1        0.262271520000       3.826216800000       0.095169196720
        26    1        0.196937280000       5.876136000000       2.005226580890
        27    1        0.227862720000       3.875238000000       4.135507807470
        28    1        0.251991360000       5.771124900000       6.007845692940
        29    1        1.641597120000       5.929963200000       0.109966846210
        30    1        1.622651040000       3.893500800000       2.034241579890
        31    1        1.570655520000       5.929722900000       4.037437110850
        32    1        1.591725600000       3.794737500000       6.140154088380
        33    1        3.091184640000       3.889175400000       0.098360846610
        34    1        3.039528960000       5.871330000000       2.004646280910
        35    1        2.973684960000       3.837110400000       4.034825760940
        36    1        3.053122560000       5.786103600000       5.961421694540
        37    1        4.500246240000       5.862519000000       0.049325498300
        38    1        4.451904000000       3.881405700000       1.996812231180
        39    1        4.496338080000       5.852025900000       3.954454213710
        40    1        4.490390880000       3.776074200000       6.025834992320
        41    1        5.908203360000       3.849926400000       0.065283747750
        42    1        5.859606240000       5.824952100000       1.958222282510
        43    1        5.897753280000       3.857535900000       4.035406060920
        44    1        5.858501760000       5.721863400000       5.896718246770
        45    1        7.324146720000       5.757988500000       0.039460398640
        46    1        7.307834400000       3.906637200000       2.065287628820
        47    1        7.275464640000       5.905052100000       3.959676913530
        48    1        7.209280800000       3.793215600000       6.042373541750
        49    2        8.440181280000       1.300663800000      17.854959934630
        50    2        5.262677280000       4.227678000000      16.153520393270
        51    2        6.643617120000       1.246516200000      13.644303279750
        52    2        2.469192480000       1.340633700000      19.130169140680
        53    2        3.838832640000       0.138893400000      12.110570432610
        54    2        2.129267520000       6.079830300000      13.273491592530
        55    2        6.515752320000       7.068024000000      12.135233181760
        56    2        4.303478880000       2.755680300000      11.823902242490
        57    2        1.956034080000       0.372384900000      15.725839308010
        58    2        7.793805600000       1.618821000000       8.338620562610
        59    2        3.354815520000       2.150364600000       8.026129023380
        60    2        1.529449920000       2.710584000000       9.798945462280
        61    2        4.898283840000       0.427653900000      18.576562959760
        62    2        5.810669280000       2.791004400000       9.529686271560
        63    2        0.030160800000       3.993145200000      16.546093329740
        64    2        1.361229120000       6.233462100000      17.646342091820
        65    2        7.069181760000       5.761593000000       8.779068247430
        66    2        6.752365920000       4.400694000000      13.048045050300
        67    2        1.776003840000       3.762617400000      12.254484827650
        68    2        4.809075840000       1.525744800000      15.824780454600
        69    2        2.885071680000       6.880990500000      10.079520502610
        70    2        0.773305920000       2.440566900000      14.339792805780
        71    2        4.816722240000       7.565284800000       8.402163410420
        72    2        8.417072160000       7.734936600000       9.985511905850
        73    2        3.843675360000       6.516695700000      16.741654423000
        74    3        0.133896960000       2.119606200000      17.416253149750
        75    3        7.641047520000       1.362981600000      18.403923715710
        76    3        4.647736800000       5.000482800000      16.282637138820
        77    3        6.208706880000       4.427367300000      16.480519432000
        78    3        5.994692640000       0.906812100000      14.315420206620
        79    3        7.238507040000       0.501265800000      13.351251789850
        80    3        1.730210400000       1.075582800000      18.495030812570
        81    3        2.270046240000       2.195300700000      19.664915572250
        82    3        3.999831840000       1.106901900000      11.938511488540
        83    3        3.156688800000       7.691442300000      12.718144511670
        84    3        2.214057600000       5.046620400000      13.173099695990
        85    3        1.286549280000       6.269186700000      13.687535628260
        86    3        6.549566400000       6.087760200000      11.989287736790
        87    3        5.584590720000       7.350136200000      12.078653933710
        88    3        4.881716640000       2.866618800000      12.596571665860
        89    3        3.363906240000       3.097867500000      12.033100385280
        90    3        1.577027520000       5.271541200000       7.031494857660
        91    3        1.626134400000       0.042853500000      16.547544079690
        92    3        7.138254240000       2.217168000000       8.882941943850
        93    3        8.006205600000       0.837365400000       8.889615393620
        94    3        4.098725280000       1.535116500000       8.314247963450
        95    3        2.650242240000       2.263545900000       8.835937645470
        96    3        0.699985440000       2.261703600000       9.649518217430
        97    3        1.578471840000       3.088415700000      10.813599977310
        98    3        5.134302720000       1.129810500000      17.928948182080
        99    3        3.959560800000       0.720659700000      18.791564102350
       100    3        5.903785440000       3.725931600000       9.220096232230
       101    3        5.533189920000       2.757682800000      10.461067739460
       102    3        0.471528000000       4.638991500000      17.102891160550
       103    3        0.494297280000       3.893340600000      15.705238658720
       104    3        2.357215200000       6.202543500000      17.456874148350
       105    3        1.270831680000       6.572205000000      18.515341311870
       106    3        7.365097440000       5.391771300000       7.911229627340
       107    3        7.830083520000       6.345602100000       9.095912036510
       108    3        6.570296640000       4.745364300000      13.969271268550
       109    3        7.199085600000       3.543543900000      13.133929447340
       110    3        1.322742240000       4.522205700000      11.882222390480
       111    3        1.190629440000       2.851560000000      13.568574132360
       112    3        3.836113920000       1.475121600000      15.706689408670
       113    3        4.894885440000       2.492631900000      15.872655202950
       114    3        3.289651200000       7.505610300000      10.857412625800
       115    3        3.110045760000       6.047790300000      10.559428586070
       116    3        8.418006720000       2.037663900000      14.097227414140
       117    3        1.364712480000       1.034331300000      15.354157170820
       118    3        4.135088160000       7.075393200000       8.968536190900
       119    3        5.683484160000       7.129620900000       8.597144203700
       120    3        0.867016800000       7.577540100000      10.149156500210
       121    3        8.019459360000       7.634651400000      10.840583926380
       122    3        4.227184800000       7.207077600000      17.451941598520
       123    3        3.440710080000       7.096299300000      16.105645644920
       124    3        2.886006240000       3.762617400000      12.254484827650
       125    4        3.039528960000       2.440566900000      14.339792805780
