LAMMPS (2 Aug 2023)
OMP_NUM_THREADS environment is not set. Defaulting to 1 thread. (src/comm.cpp:98)
  using 1 OpenMP thread(s) per MPI task
Loaded 1 plugins from /work/home/baoergen22b/apprepo/deepmd/v2.2.9-dtk23.10/app/lib/deepmd_lmp
package gpu 4
# system
units        metal
dimension    3
atom_style   atomic
boundary     p p f

# 设置原子映射
atom_modify map array

# initial stucture
read_data POSCAR.lmp
Reading data file ...
  orthogonal box = (0 0 0) to (11.328 12.015 32)
  1 by 1 by 4 MPI processor grid
  reading atoms ...
  338 atoms
  read_data CPU = 0.010 seconds
mass      1 55.845
mass      2 15.999
mass      3 1.008
mass      4  35.450

# potential
pair_style deepmd graph-compress.pb
Summary of lammps deepmd module ...
  >>> Info of deepmd-kit:
  installed to:       /work/home/wys974137909/shangcheng/deepmd-kit/20240715/deepmd-kit_v2.2.9/install
  source:             v2.2.9
  source branch:      HEAD
  source commit:      be43748
  source commit at:   2024-02-04 13:44:12 +0800
  support model ver.: 1.1 
  build variant:      rocm
  build with tf inc:  /work/home/wys974137909/shangcheng/miniconda3/envs/deepmd-kit-v2.2.9/lib/python3.8/site-packages/tensorflow/include;/work/home/wys974137909/shangcheng/miniconda3/envs/deepmd-kit-v2.2.9/lib/python3.8/site-packages/tensorflow/include
  build with tf lib:  /work/home/wys974137909/shangcheng/miniconda3/envs/deepmd-kit-v2.2.9/lib/python3.8/site-packages/tensorflow/lib/libtensorflow_cc.so
  set tf intra_op_parallelism_threads: 0
  set tf inter_op_parallelism_threads: 0
  >>> Info of lammps module:
  use deepmd-kit at:  /work/home/wys974137909/shangcheng/deepmd-kit/20240715/deepmd-kit_v2.2.9/install
  source:             v2.2.9
  source branch:      HEAD
  source commit:      be43748
  source commit at:   2024-02-04 13:44:12 +0800
  build float prec:   double
  build with tf inc:  /work/home/wys974137909/shangcheng/miniconda3/envs/deepmd-kit-v2.2.9/lib/python3.8/site-packages/tensorflow/include;/work/home/wys974137909/shangcheng/miniconda3/envs/deepmd-kit-v2.2.9/lib/python3.8/site-packages/tensorflow/include
  build with tf lib:  /work/home/wys974137909/shangcheng/miniconda3/envs/deepmd-kit-v2.2.9/lib/python3.8/site-packages/tensorflow/lib/libtensorflow_cc.so
pair_coeff * *

# 固定原子受力、速度为 0
group fixed id 1:168
168 atoms in group fixed
group mobile subtract all fixed
170 atoms in group mobile
fix freeze_fixed fixed setforce 0.0 0.0 0.0
velocity fixed set 0 0 0

# 在z=27处添加硬性反射墙
fix wall1 mobile wall/reflect zhi 26

# 计算mobile组的温度
compute mTemp mobile temp
thermo 50
thermo_style custom step temp c_mTemp pe ke etotal press
velocity mobile  create 298.15 12345 mom yes rot yes

#fix ensemble mobile  nvt temp 298.15 298.15 1
#timestep 0.0005
#run 15000
#unfix ensemble        # 结束预平衡的NVT

fix ensemble mobile  nvt temp 298.15 298.15 1
fix meta  all colvars pmf.in tstat ensemble
timestep 0.0005
dump trace all custom 10 md.lammpstrj id type x y z
run 200000

CITE-CITE-CITE-CITE-CITE-CITE-CITE-CITE-CITE-CITE-CITE-CITE-CITE

Your simulation uses code contributions which should be cited:

- GPU package (short-range, long-range and three-body potentials): doi:10.1016/j.cpc.2010.12.021, doi:10.1016/j.cpc.2011.10.012, doi:10.1016/j.cpc.2013.08.002, doi:10.1016/j.commatsci.2014.10.068, doi:10.1016/j.cpc.2016.10.020, doi:10.3233/APC200086

@Article{Brown11,
 author = {W. M. Brown and P. Wang and S. J. Plimpton and A. N. Tharrington},
 title = {Implementing Molecular Dynamics on Hybrid High Performance Computers---Short Range Forces},
 journal = {Comput.\ Phys.\ Commun.},
 year =    2011,
 volume =  182,
 pages =   {898--911},
 doi =     {10.1016/j.cpc.2010.12.021}
}

@Article{Brown12,
 author = {W. M. Brown and A. Kohlmeyer and S. J. Plimpton and A. N. Tharrington},
 title = {Implementing Molecular Dynamics on Hybrid High Performance Computers - Particle-Particle Particle-Mesh},
 journal = {Comput.\ Phys.\ Commun.},
 year =    2012,
 volume =  183,
 doi =     {10.1016/j.cpc.2011.10.012},
 pages =   {449--459}
}

@Article{Brown13,
 author = {W. M. Brown and Y. Masako},
 title = {Implementing Molecular Dynamics on Hybrid High Performance Computers---Three-Body Potentials},
 journal = {Comput.\ Phys.\ Commun.},
 year =    2013,
 volume =  184,
 pages =   {2785--2793},
 doi =     {10.1016/j.cpc.2013.08.002},
}

@Article{Trung15,
 author = {T. D. Nguyen and S. J. Plimpton},
 title = {Accelerating Dissipative Particle Dynamics Simulations for Soft Matter Systems},
 journal = {Comput.\ Mater.\ Sci.},
 year =    2015,
 doi =     {10.1016/j.commatsci.2014.10.068},
 volume =  100,
 pages =   {173--180}
}

@Article{Trung17,
 author = {T. D. Nguyen},
 title = {{GPU}-Accelerated {T}ersoff Potentials for Massively Parallel
    Molecular Dynamics Simulations},
 journal = {Comput.\ Phys.\ Commun.},
 year =    2017,
 doi =     {10.1016/j.cpc.2016.10.020},
 volume =  212,
 pages =   {113--122}
}

@inproceedings{Nikolskiy19,
 author = {V. Nikolskiy and V. Stegailov},
 title = {{GPU} Acceleration of Four-Site Water Models in {LAMMPS}},
 booktitle = {Proceedings of the International Conference on Parallel
    Computing (ParCo 2019), Prague, Czech Republic},
 doi =     {10.3233/APC200086},
 year =    2019
}

- USER-DEEPMD package:

@article{Wang_ComputPhysCommun_2018_v228_p178,
  author = {Wang, Han and Zhang, Linfeng and Han, Jiequn and E, Weinan},
  doi = {10.1016/j.cpc.2018.03.016},
  url = {https://doi.org/10.1016/j.cpc.2018.03.016},
  year = 2018,
  month = {jul},
  publisher = {Elsevier {BV}},
  volume = 228,
  journal = {Comput. Phys. Commun.},
  title = {{DeePMD-kit: A deep learning package for many-body potential energy representation and molecular dynamics}},
  pages = {178--184}
}
@misc{Zeng_JChemPhys_2023_v159_p054801,
  title  = {{DeePMD-kit v2: A software package for deep potential models}},
  author =   {Jinzhe Zeng and Duo Zhang and Denghui Lu and Pinghui Mo and Zeyu Li
         and Yixiao Chen and Mari{\'a}n Rynik and Li'ang Huang and Ziyao Li and 
         Shaochen Shi and Yingze Wang and Haotian Ye and Ping Tuo and Jiabin
         Yang and Ye Ding and Yifan Li and Davide Tisi and Qiyu Zeng and Han 
         Bao and Yu Xia and Jiameng Huang and Koki Muraoka and Yibo Wang and 
         Junhan Chang and Fengbo Yuan and Sigbj{\o}rn L{\o}land Bore and Chun
         Cai and Yinnian Lin and Bo Wang and Jiayan Xu and Jia-Xin Zhu and 
         Chenxing Luo and Yuzhi Zhang and Rhys E A Goodall and Wenshuo Liang
         and Anurag Kumar Singh and Sikai Yao and Jingchao Zhang and Renata
         Wentzcovitch and Jiequn Han and Jie Liu and Weile Jia and Darrin M
         York and Weinan E and Roberto Car and Linfeng Zhang and Han Wang},
  journal =  {J. Chem. Phys.},
  volume =   159,
  issue =    5,  
  year =    2023,
  pages  =   054801,
  doi =      {10.1063/5.0155600},
}

CITE-CITE-CITE-CITE-CITE-CITE-CITE-CITE-CITE-CITE-CITE-CITE-CITE

Generated 0 of 6 mixed pair_coeff terms from geometric mixing rule
Neighbor list info ...
  update: every = 1 steps, delay = 0 steps, check = yes
  max neighbors/atom: 2000, page size: 100000
  master list distance cutoff = 8
  ghost atom cutoff = 8
  binsize = 4, bins = 3 4 8
  1 neighbor lists, perpetual/occasional/extra = 1 0 0
  (1) pair deepmd, perpetual
      attributes: full, newton on
      pair build: full/bin/atomonly
      stencil: full/bin/3d
      bin: standard
colvars: Creating proxy instance
colvars: ----------------------------------------------------------------------
colvars: Initializing the collective variables module, version 2023-05-01.
colvars: Please cite Fiorin et al, Mol Phys 2013:
colvars:   https://doi.org/10.1080/00268976.2013.813594
colvars: as well as all other papers listed below for individual features used.
colvars: This version was built with the C++11 standard or higher.
colvars: Using LAMMPS interface, version "2023-04-12".
colvars: ----------------------------------------------------------------------
colvars: Reading new configuration from file "pmf.in":
colvars: # units = "" [default]
colvars: # smp = on [default]
colvars: # colvarsTrajFrequency = 100 [default]
colvars: # colvarsRestartFrequency = 0 [default]
colvars: # scriptedColvarForces = off [default]
colvars: # scriptingAfterBiases = off [default]
colvars: ----------------------------------------------------------------------
colvars:   Initializing a new collective variable.
colvars:   # name = "d"
colvars:   Initializing a new "distanceZ" component.
colvars:     # name = "" [default]
colvars:     # componentCoeff = 1 [default]
colvars:     # componentExp = 1 [default]
colvars:     # period = 0 [default]
colvars:     # wrapAround = 0 [default]
colvars:     # forceNoPBC = off [default]
colvars:     # scalable = on [default]
colvars:       Initializing atom group "main".
colvars:       # name = "" [default]
colvars:       # centerToOrigin = off [default]
colvars:       # centerToReference = off [default]
colvars:       # rotateToReference = off [default]
colvars:       # atomsOfGroup = "" [default]
colvars:       # indexGroup = "" [default]
colvars:       # psfSegID =  [default]
colvars:       # atomsFile = "" [default]
colvars:       # dummyAtom = ( 0 , 0 , 0 ) [default]
colvars:       # enableFitGradients = on [default]
colvars:       # printAtomIDs = off [default]
colvars:       Atom group "main" defined with 1 atoms requested.
colvars:       Initializing atom group "ref".
colvars:       # name = "" [default]
colvars:       # centerToOrigin = off [default]
colvars:       # centerToReference = off [default]
colvars:       # rotateToReference = off [default]
colvars:       # atomsOfGroup = "" [default]
colvars:       # indexGroup = "" [default]
colvars:       # psfSegID =  [default]
colvars:       # atomsFile = "" [default]
colvars:       # dummyAtom = ( 0 , 0 , 0 ) [default]
colvars:       # enableFitGradients = on [default]
colvars:       # printAtomIDs = off [default]
colvars:       Atom group "ref" defined with 23 atoms requested.
colvars:     # axis = ( 0 , 0 , 1 ) [default]
colvars:     # oneSiteSystemForce = off [default]
colvars:     # oneSiteTotalForce = off [default]
colvars:   All components initialized.
colvars:   # timeStepFactor = 1 [default]
colvars:   # width = 0.05
colvars:   # lowerBoundary = 0.8
colvars:   # upperBoundary = 6.5
colvars:   # hardLowerBoundary = on
colvars:   # hardUpperBoundary = off [default]
colvars:   # expandBoundaries = off [default]
colvars:   # extendedLagrangian = off [default]
colvars:   # outputValue = on [default]
colvars:   # outputVelocity = off [default]
colvars:   # outputTotalForce = on
colvars:   # outputAppliedForce = on
colvars:   # subtractAppliedForce = off [default]
colvars:   # runAve = off [default]
colvars:   # corrFunc = off [default]
colvars: ----------------------------------------------------------------------
colvars: Collective variables initialized, 1 in total.
colvars: ----------------------------------------------------------------------
colvars:   Initializing a new "metadynamics" instance.
colvars:   # name = "metadynamics1" [default]
colvars:   # colvars = { d }
colvars:   # stepZeroData = off [default]
colvars:   # outputEnergy = off [default]
colvars:   # outputFreq = 0 [default]
colvars:   # timeStepFactor = 1 [default]
colvars:   # writeTISamples = on
colvars:   # writeTIPMF = on
colvars:   # hillWeight = 0.2
colvars:   # newHillFrequency = 300
colvars:   # gaussianSigmas =  [default]
colvars:   # hillWidth = 1
colvars:   Half-widths of the Gaussian hills (sigma's):
colvars:   d: 0.025
colvars:   # multipleReplicas = off [default]
colvars:   # useGrids = on [default]
colvars:   # gridsUpdateFrequency = 300 [default]
colvars:   # rebinGrids = off [default]
colvars:   # writeFreeEnergyFile = on [default]
colvars:   # keepHills = off [default]
colvars:   # keepFreeEnergyFiles = off [default]
colvars:   # writeHillsTrajectory = off [default]
colvars:   # wellTempered = off [default]
colvars:   # biasTemperature = 800
colvars:   # ebMeta = off [default]
colvars: ----------------------------------------------------------------------
colvars: Collective variables biases initialized, 1 in total.
colvars: ----------------------------------------------------------------------
colvars: Collective variables module (re)initialized.
colvars: ----------------------------------------------------------------------
colvars: Re-initialized atom group for variable "d":0/0. 1 atoms: total mass = 1.008, total charge = 4.68549e-310.
colvars: Re-initialized atom group for variable "d":0/1. 23 atoms: total mass = 1284.44, total charge = 3.29915e-309.
colvars: The restart output state file will be "rest.colvars.state".
colvars: The final output state file will be "out.colvars.state".
Per MPI rank memory allocation (min/avg/max) = 3.129 | 3.153 | 3.169 Mbytes
   Step          Temp         c_mTemp         PotEng         KinEng         TotEng         Press     
         0   149.51736      298.15        -2331.8522      6.5130762     -2325.3391     -18112.572    
        50   141.4112       281.98565     -2331.4961      6.1599665     -2325.3362     -17618.644    
       100   147.6388       294.40399     -2331.7733      6.4312447     -2325.342      -15114.222    
       150   147.20998      293.54889     -2331.7498      6.4125651     -2325.3372     -15322.234    
       200   158.84992      316.75991     -2332.2612      6.9196089     -2325.3416     -20212.131    
       250   150.57158      300.25221     -2331.8984      6.5589988     -2325.3394     -18041.706    
       300   157.97762      315.02046     -2332.206       6.8816108     -2325.3244     -18871.392    
       350   150.75891      300.62575     -2331.6423      6.5671587     -2325.0751     -16465.054    
       400   161.93804      322.91787     -2331.9961      7.0541294     -2324.942      -17982.031    
       450   147.55355      294.234       -2331.3869      6.4275314     -2324.9593     -17591.649    
       500   144.57403      288.29259     -2331.3844      6.2977415     -2325.0866     -17357.772    
       550   142.0888       283.33683     -2331.327       6.189483      -2325.1375     -16446.223    
       600   152.50073      304.09908     -2331.4037      6.6430336     -2324.7606     -18008.455    
       650   164.71883      328.46299     -2331.9322      7.1752624     -2324.7569     -16572.52     
       700   148.15088      295.42512     -2331.1986      6.4535512     -2324.745      -12017.738    
       750   148.42292      295.96759     -2331.487       6.4654015     -2325.0216     -19304.265    
       800   148.01227      295.14872     -2331.29        6.4475134     -2324.8425     -16744.494    
       850   144.53879      288.22232     -2331.1015      6.2962063     -2324.8053     -17815.437    
       900   137.10651      273.40174     -2330.7782      5.9724513     -2324.8058     -17442.311    
       950   141.08021      281.32562     -2330.7477      6.1455483     -2324.6022     -16350.881    
      1000   165.91692      330.85207     -2331.9602      7.2274518     -2324.7327     -17844.958    
      1050   170.37455      339.74097     -2331.9841      7.4216295     -2324.5624     -16843.946    
      1100   163.74         326.51113     -2331.7184      7.1326241     -2324.5858     -16234.652    
      1150   162.10552      323.25183     -2331.766       7.0614247     -2324.7046     -17303.374    
      1200   141.77697      282.71502     -2331.1318      6.1758996     -2324.9559     -14247.814    
      1250   159.93313      318.91992     -2331.7361      6.9667943     -2324.7693     -16780.112    
      1300   160.2616       319.57491     -2331.6742      6.9811025     -2324.6931     -15413.077    
      1350   151.64589      302.39447     -2331.279       6.6057965     -2324.6732     -17401.816    
      1400   157.71593      314.49863     -2331.5024      6.8702115     -2324.6321     -18650.401    
      1450   157.5021       314.07223     -2331.5382      6.8608968     -2324.6773     -15853.63     
      1500   160.86133      320.77082     -2331.7185      7.0072271     -2324.7113     -13309.826    
      1550   161.82503      322.69252     -2331.5987      7.0492068     -2324.5495     -14535.55     
      1600   147.94408      295.01275     -2330.9407      6.444543      -2324.4961     -18056.443    
      1650   158.595        316.25157     -2331.2237      6.9085044     -2324.3152     -15208.954    
      1700   171.1352       341.25776     -2331.5549      7.4547636     -2324.1001     -15754.995    
      1750   154.86498      308.8136      -2330.9262      6.7460221     -2324.1802     -15163.752    
      1800   166.63122      332.27646     -2331.0844      7.2585675     -2323.8259     -17421.709    
      1850   162.45548      323.94968     -2330.9204      7.0766693     -2323.8437     -12713.432    
      1900   172.74728      344.47238     -2331.3915      7.5249869     -2323.8666     -17865.714    
      1950   165.35621      329.73397     -2331.0777      7.203027      -2323.8747     -19609.684    
      2000   157.39911      313.86687     -2330.748       6.8564107     -2323.8916     -14276.32     
      2050   153.89748      306.88433     -2330.6141      6.7038773     -2323.9102     -15076.35     
      2100   162.54372      324.12565     -2331.011       7.0805133     -2323.9305     -19456.148    
      2150   150.64307      300.39476     -2330.5081      6.5621129     -2323.946      -15763.316    
      2200   147.07409      293.27793     -2330.3739      6.4066459     -2323.9673     -16513.358    
      2250   150.69303      300.49438     -2330.5523      6.5642891     -2323.988      -15383.847    
      2300   155.11814      309.31843     -2330.7659      6.7570501     -2324.0089     -17464.472    
      2350   156.23169      311.53893     -2330.8466      6.8055569     -2324.0411     -15894.439    
      2400   142.39159      283.94064     -2330.262       6.2026731     -2324.0593     -14200.165    
      2450   158.54789      316.15762     -2330.9894      6.906452      -2324.083      -19550.2      
      2500   154.11665      307.32137     -2330.8249      6.7134245     -2324.1114     -16105.079    
      2550   147.06164      293.2531      -2330.5365      6.4061035     -2324.1304     -15139.785    
      2600   156.41061      311.89571     -2330.9759      6.8133508     -2324.1626     -15967.764    
      2650   140.01664      279.20477     -2330.2883      6.0992184     -2324.1891     -16300.146    
      2700   159.09011      317.23887     -2331.1463      6.9300718     -2324.2162     -15962.758    
      2750   156.224        311.52361     -2331.0531      6.8052221     -2324.2478     -18589.614    
      2800   153.35302      305.79862     -2330.9596      6.6801601     -2324.2794     -15768.142    
      2850   164.47212      327.97103     -2331.4812      7.1645154     -2324.3167     -18486.043    
      2900   151.31292      301.73051     -2330.9358      6.5912922     -2324.3445     -13883.019    
      2950   155.32784      309.73659     -2331.1485      6.7661847     -2324.3823     -17005.989    
      3000   145.92256      290.98168     -2330.7633      6.3564844     -2324.4069     -17907.879    
      3050   157.35994      313.78875     -2331.2959      6.8547042     -2324.4412     -13231.766    
      3100   164.95662      328.93717     -2331.6592      7.1856208     -2324.4735     -16910.105    
      3150   145.65097      290.44011     -2330.8541      6.3446538     -2324.5095     -17400.752    
      3200   151.86495      302.83129     -2331.1539      6.6153387     -2324.5386     -17854.999    
      3250   157.83277      314.73161     -2331.45        6.8753009     -2324.5747     -13667.562    
      3300   152.42152      303.94113     -2331.2437      6.6395832     -2324.6041     -16517.224    
      3350   147.75629      294.63829     -2331.0712      6.436363      -2324.6348     -16593.168    
      3400   158.3366       315.7363      -2331.5803      6.8972482     -2324.683      -17826.369    
      3450   138.13725      275.45712     -2330.7255      6.0173509     -2324.7081     -14015.845    
      3500   144.39416      287.93392     -2331.0366      6.2899063     -2324.7467     -14342.095    
      3550   160.33632      319.72391     -2331.7628      6.9843574     -2324.7785     -16766.273    
      3600   151.30543      301.71555     -2331.4014      6.5909656     -2324.8105     -13740.723    
      3650   157.32896      313.72699     -2331.6983      6.8533549     -2324.8449     -15647.789    
      3700   150.0397       299.19158     -2331.4063      6.5358295     -2324.8705     -13760.868    
      3750   147.94085      295.00631     -2331.3448      6.4444023     -2324.9004     -13468.37     
      3800   149.2783       297.6733      -2331.4329      6.5026627     -2324.9302     -15322.21     
      3850   140.04344      279.25823     -2331.0587      6.1003861     -2324.9583     -17837.15     
      3900   147.65961      294.4455      -2331.4215      6.4321516     -2324.9894     -15755.423    
      3950   152.47293      304.04365     -2331.6555      6.6418227     -2325.0136     -14973.95     
      4000   151.50761      302.11873     -2331.6425      6.5997729     -2325.0428     -15291.658    
      4050   142.86518      284.885       -2331.2883      6.2233028     -2325.065      -16369.814    
      4100   146.79153      292.71447     -2331.4883      6.3943373     -2325.0939     -14888.855    
      4150   143.75239      286.65418     -2331.3727      6.2619504     -2325.1108     -14264.526    
      4200   154.27039      307.62793     -2331.8532      6.7201212     -2325.1331     -18635.476    
      4250   159.76958      318.59378     -2332.113       6.9596699     -2325.1534     -14236.283    
      4300   146.02584      291.18762     -2331.5315      6.3609831     -2325.1705     -15957.048    
      4350   150.42468      299.95926     -2331.7389      6.5525995     -2325.1863     -18706.702    
      4400   140.54585      280.26006     -2331.3245      6.122271      -2325.2022     -15913.301    
      4450   152.2129       303.52513     -2331.8523      6.6304957     -2325.2218     -14460.78     
      4500   155.9169       310.91121     -2332.0272      6.7918444     -2325.2354     -15618.278    
      4550   156.78931      312.65087     -2332.0772      6.8298471     -2325.2473     -14759.092    
      4600   149.24146      297.59984     -2331.7645      6.5010579     -2325.2635     -17528.787    
      4650   151.66879      302.44013     -2331.8839      6.6067939     -2325.2771     -15130.51     
      4700   151.93611      302.97319     -2331.9098      6.6184385     -2325.2914     -17464.333    
      4750   145.64787      290.43391     -2331.64        6.3445185     -2325.2954     -15009.588    
      4800   153.91083      306.91095     -2332.0138      6.7044588     -2325.3093     -14442.237    
      4850   169.20646      337.4117      -2331.942       7.3707466     -2324.5713     -15488.428    
      4900   156.34409      311.76306     -2330.9881      6.8104529     -2324.1777     -16551.935    
      4950   161.48767      322.01979     -2330.2803      7.0345109     -2323.2458     -16831.714    
      5000   160.64517      320.33977     -2330.2088      6.997811      -2323.211      -17454.143    
      5050   168.03429      335.07429     -2330.5509      7.319686      -2323.2312     -13801.398    
      5100   151.011        301.12844     -2329.8241      6.5781401     -2323.2459     -18390.82     
      5150   180.08417      359.10274     -2331.0743      7.8445867     -2323.2297     -16504.686    
      5200   200.88235      400.57606     -2332.0043      8.7505697     -2323.2537     -15960.205    
      5250   178.72653      356.39551     -2331.3257      7.7854474     -2323.5402     -16250.121    
      5300   157.04726      313.16525     -2330.3519      6.8410839     -2323.5108     -16687.313    
      5350   174.69185      348.35002     -2331.5277      7.6096937     -2323.918      -17687.206    
      5400   166.40008      331.81554     -2331.2522      7.2484986     -2324.0037     -16761.352    
      5450   158.28512      315.63365     -2330.9502      6.8950058     -2324.0552     -14066.54     
      5500   174.59508      348.15705     -2331.6379      7.6054785     -2324.0325     -15536.562    
      5550   162.63646      324.31058     -2331.2619      7.0845531     -2324.1773     -18217.363    
      5600   155.42173      309.9238      -2331.1114      6.7702743     -2324.3412     -15452.886    
      5650   159.10917      317.27687     -2331.2626      6.9309019     -2324.3317     -17329.863    
      5700   161.71343      322.46997     -2331.4146      7.044345      -2324.3702     -18930.107    
      5750   184.4723       367.85305     -2331.8425      8.0357369     -2323.8067     -15376.31     
      5800   162.90803      324.85211     -2330.8761      7.0963828     -2323.7797     -15367.994    
      5850   166.62625      332.26654     -2331.1743      7.2583507     -2323.916      -17221.107    
      5900   164.75388      328.53289     -2330.8559      7.1767892     -2323.6791     -13294.568    
      5950   180.10637      359.14701     -2331.5606      7.8455538     -2323.715      -15497.206    
      6000   182.90524      364.7282      -2331.4488      7.9674745     -2323.4813     -15163.338    
      6050   193.64737      386.14889     -2331.6601      8.4354088     -2323.2247     -17495.965    
      6100   177.78203      354.51209     -2331.1258      7.7443041     -2323.3815     -16236.326    
      6150   182.81493      364.54812     -2330.9152      7.9635408     -2322.9516     -16076.941    
      6200   166.31607      331.64802     -2329.5432      7.2448393     -2322.2984     -17993.159    
      6250   173.5819       346.13669     -2329.167       7.5613438     -2321.6056     -16137.435    
      6300   199.08666      396.99529     -2330.3189      8.672348      -2321.6466     -16710.636    
      6350   193.75389      386.3613      -2330.1094      8.4400489     -2321.6693     -20874.266    
      6400   198.17005      395.1675      -2330.3601      8.63242       -2321.7277     -21420.539    
      6450   174.60162      348.17009     -2329.371       7.6057632     -2321.7652     -21772.712    
      6500   210.65032      420.05419     -2331.0055      9.176069      -2321.8295     -20913.482    
      6550   192.0532       382.96998     -2330.2313      8.3659657     -2321.8653     -21082.015    
      6600   177.10984      353.1717      -2329.62        7.7150233     -2321.905      -18751.921    
      6650   202.37637      403.55526     -2330.7786      8.8156503     -2321.963      -18756.942    
      6700   185.28526      369.47415     -2330.0741      8.0711498     -2322.0029     -20906.079    
      6750   167.31365      333.63728     -2329.3353      7.2882946     -2322.047      -21079.204    
      6800   162.478        323.99459     -2329.1765      7.0776504     -2322.0988     -20994.082    
      6850   217.07515      432.86582     -2331.6274      9.4559385     -2322.1714     -21400.071    
      6900   182.98201      364.88129     -2330.1773      7.9708189     -2322.2065     -21715.442    
      6950   187.60384      374.0976      -2330.4463      8.1721488     -2322.2741     -22813.483    
      7000   205.30565      409.39648     -2331.2817      8.9432515     -2322.3385     -19818.423    
      7050   200.59453      400.00212     -2331.1253      8.7380321     -2322.3873     -20502.368    
      7100   201.82726      402.46027     -2331.2234      8.7917302     -2322.4316     -17811.635    
      7150   181.52285      361.97161     -2330.3919      7.9072569     -2322.4847     -16278.818    
      7200   191.98662      382.83722     -2330.9463      8.3630655     -2322.5832     -17322.134    
      7250   187.63023      374.15023     -2330.7002      8.1732984     -2322.5269     -16186.715    
      7300   187.41618      373.72339     -2330.5854      8.1639741     -2322.4214     -15324.022    
      7350   189.80975      378.49637     -2331.2243      8.2682398     -2322.9561     -17764.053    
      7400   169.30601      337.61021     -2330.778       7.375083      -2323.403      -16052.29     
      7450   167.81459      334.63619     -2330.5367      7.3101157     -2323.2266     -16715.13     
      7500   175.37668      349.71564     -2331.2468      7.6395257     -2323.6073     -13101.51     
      7550   178.38821      355.72086     -2330.9577      7.7707096     -2323.187      -14495.846    
      7600   159.68568      318.42647     -2330.1641      6.9560149     -2323.2081     -15210.067    
      7650   184.87088      368.64785     -2331.2925      8.0530993     -2323.2394     -19519.776    
      7700   171.54922      342.08335     -2330.7526      7.4727987     -2323.2798     -14808.443    
      7750   174.27478      347.51835     -2330.8864      7.591526      -2323.2949     -14890.668    
      7800   170.61472      340.21989     -2330.7597      7.4320915     -2323.3276     -15520.743    
      7850   155.57552      310.23047     -2329.9525      6.7769736     -2323.1755     -12150.822    
      7900   161.19636      321.4389      -2330.2168      7.0218214     -2323.195      -15230.458    
      7950   170.34242      339.6769      -2330.7343      7.4202299     -2323.3141     -16369.528    
      8000   167.61489      334.23798     -2330.5936      7.3014168     -2323.2922     -17579.426    
      8050   180.8258       360.58162     -2331.031       7.8768926     -2323.1541     -16783.684    
      8100   171.19259      341.3722      -2330.7787      7.4572636     -2323.3214     -14312.334    
      8150   184.78802      368.48263     -2330.7782      8.0494899     -2322.7287     -15873.027    
      8200   183.72075      366.35439     -2331.2217      8.0029987     -2323.2187     -17956.219    
      8250   180.24807      359.42959     -2330.7074      7.8517267     -2322.8557     -19581.345    
      8300   174.52876      348.02481     -2330.214       7.6025895     -2322.6115     -13618.726    
      8350   179.64667      358.23034     -2330.4328      7.825529      -2322.6073     -18831.176    
      8400   178.06818      355.0827      -2330.4082      7.7567689     -2322.6514     -17070.039    
      8450   181.0375       361.00377     -2330.5863      7.8861146     -2322.7002     -15064.967    
      8500   191.47867      381.82432     -2330.1361      8.3409388     -2321.7952     -18351.166    
      8550   204.32482      407.44062     -2330.2732      8.9005259     -2321.3727     -16533.555    
      8600   186.31327      371.52409     -2328.1377      8.1159305     -2320.0218     -16766.707    
      8650   225.6344       449.93368     -2329.0095      9.8287852     -2319.1807     -14661.952    
      8700   204.15655      407.10506     -2327.9107      8.8931957     -2319.0175     -20331.364    
      8750   216.18599      431.09278     -2328.0758      9.4172065     -2318.6586     -16910.566    
      8800   223.28091      445.24063     -2328.4229      9.7262657     -2318.6966     -19000.976    
      8850   190.98645      380.8428      -2327.0743      8.3194975     -2318.7548     -17711.942    
      8900   216.97591      432.66794     -2328.2778      9.4516159     -2318.8262     -22415.753    
      8950   197.20937      393.25182     -2327.4831      8.5905721     -2318.8925     -16390.425    
      9000   208.62049      416.00654     -2328.0369      9.0876481     -2318.9492     -19205.384    
      9050   202.00899      402.82267     -2327.6895      8.7996469     -2318.8898     -19561.385    
      9100   205.593        409.96948     -2327.9051      8.9557687     -2318.9493     -14082.405    
      9150   216.29718      431.3145      -2328.459       9.4220499     -2319.037      -16802.58     
      9200   193.47898      385.81311     -2327.5303      8.4280738     -2319.1022     -17054.938    
      9250   213.59183      425.9198      -2328.4783      9.3042028     -2319.1741     -17302.428    
      9300   198.16545      395.15833     -2327.8754      8.6322197     -2319.2432     -17894.605    
      9350   211.69959      422.14651     -2328.4063      9.2217756     -2319.1846     -14673.985    
      9400   203.66978      406.13441     -2328.151       8.8719918     -2319.279      -19979.627    
      9450   200.24611      399.30734     -2328.1601      8.7228547     -2319.4373     -16414.458    
      9500   199.82439      398.46639     -2328.1999      8.7044843     -2319.4954     -16699.384    
      9550   188.26324      375.41249     -2327.8157      8.2008725     -2319.6148     -19357.595    
      9600   196.91175      392.65834     -2328.2442      8.5776075     -2319.6666     -14880.808    
      9650   187.74664      374.38235     -2327.9955      8.1783692     -2319.8171     -15529.372    
      9700   202.22521      403.25381     -2328.6614      8.8090652     -2319.8523     -15187.211    
      9750   201.2836       401.37618     -2328.4939      8.7680483     -2319.7259     -18265.589    
      9800   199.32628      397.47312     -2328.4767      8.6827862     -2319.7939     -13809.95     
      9850   180.42445      359.7813      -2327.7528      7.8594098     -2319.8934     -16639.847    
      9900   192.22736      383.31727     -2328.2984      8.3735523     -2319.9249     -16650.14     
      9950   190.2396       379.35353     -2328.0325      8.2869644     -2319.7456     -15203.096    
     10000   196.74831      392.33244     -2328.3685      8.5704881     -2319.798      -14470.425    
     10050   182.67142      364.26195     -2327.7601      7.9572894     -2319.8028     -16085.338    
     10100   185.73289      370.36678     -2327.9819      8.0906491     -2319.8912     -15355.753    
     10150   203.80002      406.39412     -2328.8655      8.8776651     -2319.9878     -13321.151    
     10200   195.25745      389.35953     -2328.5752      8.5055452     -2320.0696     -16626.868    
     10250   209.1092       416.98107     -2329.1233      9.1089368     -2320.0143     -14242.369    
     10300   199.28522      397.39124     -2328.791       8.6809974     -2320.11       -14168.012    
     10350   193.59129      386.03707     -2328.5974      8.4329661     -2320.1645     -17594.076    
     10400   184.7453       368.39742     -2328.2918      8.0476287     -2320.2442     -17333.695    
     10450   185.02821      368.96157     -2328.3473      8.0599524     -2320.2873     -17334.081    
     10500   190.44292      379.75896     -2328.6951      8.2958211     -2320.3993     -16960.517    
     10550   190.36329      379.60018     -2328.5787      8.2923524     -2320.2863     -14284.245    
     10600   201.3492       401.50699     -2329.1544      8.7709059     -2320.3835     -16063.403    
     10650   184.6566       368.22057     -2328.4458      8.0437652     -2320.402      -14762.983    
     10700   198.22472      395.27651     -2329.1029      8.6348014     -2320.4681     -14907.833    
     10750   195.05578      388.95738     -2329.1374      8.4967602     -2320.6406     -16944.454    
     10800   194.19319      387.23731     -2328.9572      8.4591852     -2320.498      -14882.508    
     10850   195.33972      389.52358     -2328.8529      8.5091288     -2320.3438     -17933.37     
     10900   193.64108      386.13635     -2328.8448      8.4351348     -2320.4097     -16393.532    
     10950   192.80096      384.46108     -2328.6863      8.3985386     -2320.2878     -16947.455    
     11000   195.42519      389.69402     -2328.9261      8.5128521     -2320.4133     -17527.843    
     11050   181.7475       362.41958     -2328.3005      7.9170428     -2320.3835     -16193.331    
     11100   180.11005      359.15436     -2328.2169      7.8457143     -2320.3712     -19018.838    
     11150   193.38175      385.61924     -2328.7448      8.4238386     -2320.3209     -17393.044    
     11200   186.27752      371.4528      -2328.5649      8.1143733     -2320.4505     -18167.318    
     11250   180.62741      360.18603     -2328.3359      7.868251      -2320.4677     -19107.934    
     11300   173.93854      346.84786     -2328.0598      7.5768793     -2320.483      -18462.407    
     11350   165.3625       329.74653     -2327.7273      7.2033013     -2320.524      -15367.967    
     11400   170.70696      340.40383     -2328.1583      7.4361095     -2320.7222     -18810.614    
     11450   187.69302      374.27544     -2328.7519      8.1760337     -2320.5759     -17440.673    
     11500   185.51824      369.93875     -2328.698       8.0812988     -2320.6167     -19599.962    
     11550   188.7229       376.32909     -2328.8262      8.2208956     -2320.6053     -20258.563    
     11600   190.12811      379.13119     -2328.9282      8.2821074     -2320.6461     -15848.218    
     11650   182.31809      363.55737     -2328.6152      7.9418979     -2320.6733     -17402.822    
     11700   185.29097      369.48554     -2328.8787      8.0713984     -2320.8073     -17126.229    
     11750   179.96367      358.86246     -2327.9633      7.8393377     -2320.1239     -17807.56     
     11800   178.05872      355.06383     -2327.9498      7.7563568     -2320.1935     -16480.584    
     11850   184.88597      368.67794     -2328.2322      8.0537565     -2320.1784     -17528.144    
     11900   181.06341      361.05544     -2328.1037      7.8872434     -2320.2165     -19837.317    
     11950   185.29219      369.48799     -2328.3439      8.0714519     -2320.2725     -14594.108    
     12000   198.24905      395.32502     -2328.9089      8.6358611     -2320.2731     -17734.122    
     12050   198.5707       395.96642     -2328.9284      8.6498724     -2320.2785     -17701.604    
     12100   188.54791      375.98015     -2328.1215      8.2132729     -2319.9083     -19693.81     
     12150   181.82349      362.5711      -2328.1392      7.9203528     -2320.2188     -13525.208    
     12200   191.70346      382.27257     -2328.3104      8.3507308     -2319.9596     -14768.985    
     12250   193.12722      385.11168     -2328.5449      8.4127509     -2320.1321     -15107.217    
     12300   189.832        378.54073     -2328.4161      8.2692087     -2320.1469     -17620.351    
     12350   179.76         358.45633     -2328.03        7.8304658     -2320.1995     -15103.7      
     12400   184.34291      367.59504     -2327.7344      8.0301006     -2319.7043     -18314.944    
     12450   203.24688      405.29112     -2328.6278      8.8535701     -2319.7742     -14696.363    
     12500   199.16153      397.14458     -2328.5294      8.6756093     -2319.8538     -14070.57     
     12550   188.17904      375.24458     -2328.1164      8.1972046     -2319.9192     -17387.472    
     12600   205.13911      409.06437     -2328.9686      8.9359967     -2320.0327     -15375.241    
     12650   200.76872      400.34947     -2328.6336      8.7456199     -2319.888      -13740.586    
     12700   173.30644      345.5874      -2327.4985      7.5493444     -2319.9492     -16405.972    
     12750   188.00945      374.90642     -2328.2276      8.1898175     -2320.0378     -13387.735    
     12800   190.69336      380.25836     -2328.4101      8.3067305     -2320.1034     -16278.504    
     12850   186.75478      372.4045      -2328.3052      8.1351631     -2320.17       -15833.089    
     12900   183.5841       366.08191     -2328.1628      7.9970462     -2320.1657     -14846.463    
     12950   193.99584      386.84378     -2328.7494      8.4505886     -2320.2988     -14622.309    
     13000   199.05814      396.93843     -2329.1324      8.6711059     -2320.4613     -14122.349    
     13050   180.68885      360.30854     -2328.4021      7.8709272     -2320.5312     -18989.232    
     13100   182.49632      363.91278     -2328.5432      7.9496618     -2320.5935     -18610.58     
     13150   167.7921       334.59134     -2327.9583      7.309136      -2320.6492     -16299.001    
     13200   192.30774      383.47757     -2329.1198      8.3770539     -2320.7427     -15702.669    
     13250   188.52061      375.92571     -2328.5663      8.2120839     -2320.3542     -17411.818    
     13300   175.79609      350.55196     -2328.0774      7.6577951     -2320.4196     -13807.515    
     13350   183.46565      365.8457      -2328.5         7.9918862     -2320.5081     -14953.577    
     13400   179.50234      357.94253     -2328.4018      7.8192418     -2320.5825     -15975.435    
     13450   177.6999       354.34831     -2328.2452      7.7407264     -2320.5044     -15751.425    
     13500   171.65992      342.30411     -2328.1419      7.4776211     -2320.6643     -15566.621    
     13550   175.71418      350.38863     -2327.8155      7.6542272     -2320.1613     -17957.404    
     13600   182.0909       363.10434     -2327.9868      7.9320015     -2320.0548     -15558.693    
     13650   194.76126      388.37008     -2328.2171      8.4839305     -2319.7331     -17203.44     
     13700   203.89308      406.57969     -2328.7903      8.8817189     -2319.9086     -12389.682    
     13750   183.93164      366.77492     -2327.9452      8.0121852     -2319.933      -16372.111    
     13800   207.19121      413.15643     -2328.2756      9.0253876     -2319.2502     -14947.609    
     13850   191.81906      382.50309     -2327.4733      8.3557665     -2319.1176     -13960.386    
     13900   206.16002      411.10015     -2328.0082      8.9804682     -2319.0277     -16277.634    
     13950   181.34174      361.61045     -2326.8434      7.8993674     -2318.944      -11690.992    
     14000   204.12537      407.04289     -2328.226       8.8918375     -2319.3342     -17351.3      
     14050   207.67728      414.12569     -2328.667       9.046561      -2319.6204     -14920.786    
     14100   185.34614      369.59556     -2327.8152      8.0738018     -2319.7414     -16789.466    
     14150   200.88798      400.58728     -2328.3009      8.750815      -2319.5501     -17535.049    
     14200   187.85766      374.60373     -2327.9235      8.1832053     -2319.7402     -17928.48     
     14250   184.72309      368.35314     -2327.9112      8.0466612     -2319.8646     -15485.428    
     14300   202.87357      404.5467      -2328.7819      8.8373082     -2319.9446     -17479.996    
     14350   187.21562      373.32345     -2328.1921      8.1552376     -2320.0369     -18241.001    
     14400   185.97189      370.84335     -2327.9962      8.1010599     -2319.8951     -14404.248    
     14450   191.57955      382.0255      -2328.179       8.3453335     -2319.8337     -15951.886    
     14500   195.82011      390.48152     -2328.4074      8.530055      -2319.8774     -16446.722    
     14550   201.44315      401.69433     -2328.6684      8.7749983     -2319.8934     -15731.796    
     14600   204.32702      407.445       -2328.6703      8.9006216     -2319.7697     -14253.729    
     14650   183.2512       365.41807     -2327.6159      7.9825448     -2319.6333     -15609.026    
     14700   210.21321      419.18256     -2328.8774      9.1570281     -2319.7203     -16630.693    
     14750   201.23522      401.2797      -2328.371       8.7659408     -2319.6051     -15378.762    
     14800   209.01614      416.79549     -2328.4169      9.1048828     -2319.312      -15483.584    
     14850   205.41835      409.6212      -2328.5015      8.9481606     -2319.5533     -16010.864    
     14900   191.5471       381.96079     -2327.7618      8.3439198     -2319.4179     -14955.08     
     14950   179.33538      357.6096      -2327.3592      7.8119689     -2319.5472     -18638.368    
     15000   194.85991      388.5668      -2328.1224      8.488228      -2319.6341     -14508.848    
     15050   193.69332      386.24053     -2327.9928      8.4374108     -2319.5554     -16718.1      
     15100   195.78793      390.41734     -2328.1826      8.528653      -2319.6539     -15881.859    
     15150   198.56288      395.95083     -2327.9518      8.6495319     -2319.3023     -16548.83     
     15200   188.97156      376.82495     -2327.6642      8.2317276     -2319.4325     -17138.85     
     15250   170.1129       339.21922     -2326.8874      7.4102319     -2319.4771     -16152.995    
     15300   182.09488      363.11227     -2327.4802      7.9321746     -2319.5481     -16841.901    
     15350   203.25671      405.31072     -2328.0357      8.8539982     -2319.1817     -15623.05     
     15400   194.77032      388.38815     -2328.0378      8.4843254     -2319.5535     -16253.84     
     15450   199.19051      397.20238     -2328.1761      8.6768719     -2319.4992     -16036.361    
     15500   196.32308      391.48449     -2327.7928      8.5519649     -2319.2408     -17108.613    
     15550   206.63615      412.0496      -2328.4073      9.001209      -2319.4061     -17199.925    
     15600   187.65239      374.19442     -2327.6599      8.1742638     -2319.4856     -13355.954    
     15650   186.40913      371.71524     -2327.157       8.1201063     -2319.0369     -19262.229    
     15700   205.03017      408.84715     -2328.0518      8.9312514     -2319.1205     -10692.597    
     15750   201.17749      401.16458     -2327.9663      8.763426      -2319.2029     -17291.368    
     15800   205.3759       409.53656     -2327.9426      8.9463116     -2318.9963     -16597.974    
     15850   198.93477      396.69241     -2327.7795      8.6657316     -2319.1138     -14964.036    
     15900   206.32463      411.42841     -2328.2421      8.9876389     -2319.2545     -17403.832    
     15950   193.2546       385.36567     -2327.2904      8.4182995     -2318.8721     -15978.171    
     16000   201.11112      401.03224     -2328.0377      8.7605351     -2319.2771     -14590.17     
     16050   197.77453      394.3788      -2328.0428      8.615191      -2319.4276     -13333.798    
     16100   191.19824      381.26512     -2327.6456      8.3287231     -2319.3169     -16058.299    
     16150   190.65491      380.18168     -2327.7623      8.3050553     -2319.4573     -14358.894    
     16200   192.37302      383.60773     -2327.9255      8.3798972     -2319.5456     -14170.636    
     16250   200.82575      400.46318     -2328.1718      8.748104      -2319.4237     -15424.853    
     16300   200.63825      400.08928     -2328.3632      8.7399362     -2319.6233     -18577.037    
     16350   177.89925      354.74585     -2327.3903      7.7494105     -2319.6408     -17674.515    
     16400   184.23474      367.37934     -2327.6377      8.0253887     -2319.6123     -17503.259    
     16450   190.43767      379.74848     -2327.9108      8.2955921     -2319.6152     -17147.663    
     16500   186.38764      371.67239     -2327.5291      8.1191701     -2319.41       -21337.057    
     16550   167.48315      333.97528     -2326.6215      7.295678      -2319.3258     -15126.193    
     16600   179.55838      358.05429     -2327.1518      7.8216832     -2319.3301     -19225.081    
     16650   192.68569      384.23122     -2327.6222      8.3935174     -2319.2287     -15129.749    
     16700   197.66753      394.16543     -2327.9025      8.6105299     -2319.2919     -17867.528    
     16750   184.9622       368.82995     -2327.4763      8.0570771     -2319.4192     -17236.141    
     16800   183.88588      366.68367     -2327.4465      8.0101917     -2319.4363     -21504.36     
     16850   186.90226      372.69859     -2327.5915      8.1415875     -2319.4499     -16870.514    
     16900   194.37143      387.59273     -2328.0339      8.4669494     -2319.5669     -17184.332    
     16950   197.98688      394.80223     -2328.2797      8.6244408     -2319.6552     -18383.831    
     17000   193.20103      385.25886     -2328.0807      8.4159662     -2319.6647     -16715.612    
     17050   188.45863      375.80213     -2327.9867      8.2093841     -2319.7774     -17300.337    
     17100   185.48488      369.87221     -2327.9272      8.0798453     -2319.8474     -16869.637    
     17150   191.60873      382.08368     -2327.9726      8.3466044     -2319.626      -13812.908    
     17200   194.90287      388.65247     -2328.2364      8.4900993     -2319.7463     -17745.525    
     17250   177.86033      354.66824     -2327.5403      7.747715      -2319.7926     -14650.197    
     17300   192.19507      383.25288     -2328.2862      8.3721456     -2319.914      -18787.001    
     17350   199.24287      397.30679     -2328.7072      8.6791526     -2320.028      -16550.045    
     17400   194.84221      388.53151     -2328.7045      8.4874571     -2320.2171     -14569.519    
     17450   187.50732      373.90513     -2328.2518      8.1679442     -2320.0838     -11285.28     
     17500   190.75251      380.3763      -2328.4457      8.3093068     -2320.1364     -16238.675    
     17550   185.71365      370.32839     -2328.309       8.0898106     -2320.2192     -17598.337    
     17600   173.31275      345.59999     -2327.8329      7.5496194     -2320.2833     -13917.405    
     17650   180.07025      359.07499     -2328.2083      7.8439805     -2320.3643     -12709.479    
     17700   198.93841      396.69968     -2329.1054      8.6658904     -2320.4395     -14724.007    
     17750   178.85238      356.64646     -2328.1651      7.7909292     -2320.3742     -18672.234    
     17800   171.3135       341.61332     -2327.9329      7.4625308     -2320.4704     -11036.228    
     17850   181.62918      362.18362     -2328.452       7.9118884     -2320.5402     -13975.765    
     17900   170.84292      340.67493     -2328.0355      7.4420318     -2320.5934     -17553.871    
     17950   168.11877      335.24274     -2327.9864      7.3233659     -2320.663      -15687.335    
     18000   167.29757      333.60521     -2328.0287      7.287594      -2320.7411     -14842.69     
     18050   162.94377      324.92338     -2327.8604      7.0979396     -2320.7624     -14324.713    
     18100   177.31354      353.57789     -2328.5532      7.7238964     -2320.8293     -15373.603    
     18150   189.39929      377.67787     -2329.1467      8.2503597     -2320.8963     -16533.873    
     18200   196.74416      392.32415     -2329.5301      8.5703072     -2320.9598     -15304.347    
     18250   162.76032      324.55756     -2327.8996      7.0899484     -2320.8097     -17525.929    
     18300   181.16868      361.26536     -2328.6003      7.8918291     -2320.7085     -11626.326    
     18350   178.96709      356.87521     -2328.4127      7.7959262     -2320.6168     -17557.732    
     18400   168.06521      335.13595     -2328.2541      7.321033      -2320.9331     -15162.89     
     18450   178.20987      355.36524     -2328.6464      7.7629411     -2320.8834     -15688.765    
     18500   182.22295      363.36766     -2328.8683      7.9377537     -2320.9306     -13441.481    
     18550   173.21814      345.41133     -2328.5293      7.5454981     -2320.9838     -14950.73     
     18600   194.93639      388.71931     -2329.5443      8.4915596     -2321.0527     -15268.501    
     18650   173.31908      345.61259     -2328.5222      7.5498948     -2320.9723     -15482.896    
     18700   178.86389      356.66942     -2328.8713      7.7914307     -2321.0799     -15415.236    
     18750   183.69461      366.30226     -2329.128       8.00186       -2321.1261     -14800.825    
     18800   180.93338      360.79614     -2329.0896      7.8815789     -2321.208      -16572.812    
     18850   173.07446      345.1248      -2328.7993      7.5392391     -2321.2601     -16232.828    
     18900   183.61454      366.1426      -2329.3265      7.9983721     -2321.3282     -16633.631    
     18950   169.72176      338.43924     -2328.5886      7.3931933     -2321.1954     -14856.211    
     19000   167.75707      334.52149     -2328.5719      7.3076101     -2321.2643     -16076.088    
     19050   167.95937      334.9249      -2328.6295      7.3164225     -2321.3131     -19465.315    
     19100   179.42236      357.78305     -2329.1966      7.815758      -2321.3809     -16403.64     
     19150   181.13584      361.19987     -2329.336       7.8903984     -2321.4456     -17233.003    
     19200   171.6139       342.21233     -2328.9713      7.4756162     -2321.4957     -16344.773    
     19250   188.10558      375.09811     -2329.5117      8.1940049     -2321.3177     -17619.514    
     19300   159.42171      317.9001      -2328.3214      6.9445163     -2321.3769     -18564.495    
     19350   172.40226      343.78438     -2328.9863      7.5099576     -2321.4764     -17220.729    
     19400   186.34503      371.58743     -2329.6647      8.1173141     -2321.5474     -15346.58     
     19450   180.54952      360.03071     -2329.4722      7.864858      -2321.6073     -18643.87     
     19500   185.97787      370.85527     -2329.7745      8.1013202     -2321.6732     -16168.806    
     19550   181.98364      362.89046     -2329.4744      7.9273292     -2321.547      -19250.244    
     19600   179.303        357.54503     -2329.4125      7.8105586     -2321.6019     -13576.804    
     19650   172.91097      344.7988      -2329.1462      7.5321176     -2321.6141     -17098.771    
     19700   170.01025      339.01452     -2329.0816      7.4057601     -2321.6758     -15567.238    
     19750   168.87496      336.75067     -2329.116       7.3563063     -2321.7597     -17406.104    
     19800   162.86874      324.77376     -2328.8708      7.0946713     -2321.7762     -15631.307    
     19850   182.76442      364.4474      -2329.4776      7.9613405     -2321.5162     -17900.804    
     19900   174.72759      348.42128     -2329.1077      7.6112506     -2321.4965     -17779.502    
     19950   181.85023      362.62443     -2329.7138      7.9215178     -2321.7922     -16434.096    
     20000   168.73096      336.46351     -2329.0584      7.3500335     -2321.7084     -16433.899    
     20050   188.08719      375.06144     -2329.9825      8.1932038     -2321.7892     -14987.857    
     20100   188.40304      375.69126     -2330.0722      8.2069623     -2321.8652     -18822.881    
     20150   170.45292      339.89725     -2329.1726      7.4250434     -2321.7476     -17359.743    
     20200   176.447        351.84993     -2329.504       7.6861492     -2321.8178     -15418.376    
     20250   174.19291      347.35509     -2329.4744      7.5879596     -2321.8865     -14054.755    
     20300   170.37849      339.74882     -2329.4043      7.421801      -2321.9825     -12459.972    
     20350   173.24465      345.46418     -2329.6191      7.5466527     -2322.0724     -15036.248    
     20400   167.15288      333.31668     -2329.3786      7.281291      -2322.0973     -16272.937    
     20450   180.37486      359.68241     -2329.7068      7.8572495     -2321.8495     -17183.253    
     20500   162.51727      324.0729      -2329.0262      7.079361      -2321.9469     -15214.718    
     20550   172.73877      344.45542     -2329.4895      7.5246165     -2321.9649     -15996.566    
     20600   173.54747      346.06804     -2329.6126      7.559844      -2322.0527     -16759.254    
     20650   172.12534      343.23219     -2329.6065      7.4978951     -2322.1086     -16254.796    
     20700   177.46929      353.88846     -2329.916       7.730681      -2322.1853     -17117.224    
     20750   170.77217      340.53385     -2329.4859      7.4389498     -2322.0469     -16057.622    
     20800   179.91488      358.76517     -2329.9451      7.8372123     -2322.1079     -17557.081    
     20850   171.61474      342.214       -2329.647       7.4756527     -2322.1713     -16338.85     
     20900   179.80402      358.5441      -2330.1063      7.8323832     -2322.2739     -14771.329    
     20950   173.4813       345.93608     -2329.885       7.5569614     -2322.3281     -17774.802    
     21000   166.51778      332.05024     -2329.545       7.2536257     -2322.2913     -16112.461    
     21050   167.41644      333.84225     -2329.7011      7.292772      -2322.4083     -17973.895    
     21100   173.5782       346.12932     -2329.8163      7.5611827     -2322.2551     -16244.868    
     21150   173.49784      345.96907     -2329.856       7.5576821     -2322.2983     -17131.36     
     21200   162.35452      323.74837     -2329.4221      7.0722716     -2322.3498     -16563.659    
     21250   158.47849      316.01924     -2329.3116      6.9034291     -2322.4082     -14959.099    
     21300   174.50154      347.97054     -2330.0346      7.601404      -2322.4332     -17278.493    
     21350   164.75525      328.53561     -2329.4905      7.1768488     -2322.3136     -16001.268    
     21400   183.50637      365.9269      -2330.3896      7.9936602     -2322.3959     -17049.244    
     21450   158.77515      316.6108      -2329.4129      6.9163516     -2322.4965     -22373.305    
     21500   166.25582      331.52789     -2329.6264      7.2422149     -2322.3842     -15520.719    
     21550   171.54241      342.06978     -2330.0189      7.4725022     -2322.5464     -15355.867    
     21600   158.58037      316.22239     -2329.3873      6.9078669     -2322.4794     -16509.838    
     21650   184.49355      367.89543     -2330.3126      8.0366626     -2322.276      -16101.103    
     21700   178.8214       356.58468     -2330.136       7.7895796     -2322.3464     -16875.355    
     21750   186.5435       371.98319     -2330.2323      8.1259596     -2322.1063     -16879.518    
     21800   171.36888      341.72375     -2329.3099      7.4649432     -2321.845      -14826.54     
     21850   175.71641      350.39307     -2329.2223      7.6543243     -2321.568      -17574.081    
     21900   186.73023      372.35554     -2329.5678      8.1340935     -2321.4337     -15026.999    
     21950   173.45484      345.88333     -2328.7477      7.555809      -2321.1919     -17459.174    
     22000   179.03833      357.01726     -2329.1742      7.7990294     -2321.3751     -15378.677    
     22050   179.50606      357.94994     -2329.1047      7.8194038     -2321.2853     -15099.609    
     22100   170.70775      340.40539     -2328.7197      7.4361437     -2321.2836     -17365.978    
     22150   190.99232      380.85451     -2329.6951      8.3197533     -2321.3753     -17178.889    
     22200   171.96894      342.92031     -2328.9286      7.491082      -2321.4375     -15395.008    
     22250   163.77306      326.57704     -2328.4125      7.1340638     -2321.2784     -17831.4      
     22300   177.97404      354.89498     -2329.0558      7.7526683     -2321.3031     -14639.268    
     22350   162.68018      324.39775     -2328.4533      7.0864572     -2321.3669     -17113.797    
     22400   185.74515      370.39121     -2329.5325      8.0911828     -2321.4413     -16394.253    
     22450   162.66863      324.37473     -2328.6561      7.0859544     -2321.5701     -16844.757    
     22500   191.16577      381.20038     -2329.9122      8.3273088     -2321.5849     -18471.79     
     22550   195.91059      390.66195     -2329.9604      8.5339965     -2321.4264     -17208.941    
     22600   156.67367      312.42028     -2328.3158      6.8248099     -2321.491      -16944.517    
     22650   183.01489      364.94685     -2329.5346      7.972251      -2321.5623     -13677.027    
     22700   187.36239      373.61613     -2329.7862      8.1616311     -2321.6246     -17891.145    
     22750   181.95805      362.83943     -2329.6091      7.9262145     -2321.6829     -16855.487    
     22800   180.89393      360.71749     -2329.632       7.8798608     -2321.7521     -17572.509    
     22850   179.49773      357.93333     -2329.4371      7.819041      -2321.6181     -16885.542    
     22900   174.79029      348.54631     -2329.2916      7.6139818     -2321.6776     -15899.356    
     22950   176.05506      351.06838     -2329.4118      7.6690763     -2321.7427     -18534.12     
     23000   169.22492      337.44851     -2329.1832      7.3715508     -2321.8116     -16957.765    
     23050   176.43696      351.82991     -2329.5636      7.6857118     -2321.8779     -18825.467    
     23100   174.93432      348.83352     -2329.5655      7.6202559     -2321.9453     -15186.719    
     23150   182.73095      364.38066     -2329.7656      7.9598825     -2321.8057     -17770.471    
     23200   172.79766      344.57284     -2329.3948      7.5271815     -2321.8677     -17584.965    
     23250   181.60855      362.1425      -2329.9178      7.9109901     -2322.0068     -15112.178    
     23300   178.2514       355.44805     -2329.7777      7.7647501     -2322.013      -17503.749    
     23350   176.8938       352.74089     -2329.7838      7.7056121     -2322.0782     -15412.57     
     23400   167.09055      333.1924      -2329.4149      7.2785762     -2322.1363     -14829.114    
     23450   176.79415      352.54218     -2329.7169      7.7012714     -2322.0156     -14532.441    
     23500   184.74253      368.39192     -2330.1202      8.0475083     -2322.0727     -16775.892    
     23550   181.52002      361.96597     -2330.0518      7.9071337     -2322.1447     -17426.614    
     23600   167.32124      333.65241     -2329.4808      7.288625      -2322.1922     -15634.957    
     23650   172.46494      343.90937     -2329.7766      7.512688      -2322.2639     -16322.331    
     23700   167.10252      333.21627     -2329.6074      7.2790976     -2322.3283     -17661.904    
     23750   167.74668      334.50078     -2329.4958      7.3071577     -2322.1887     -17037.256    
     23800   191.23033      381.32912     -2330.5927      8.3301211     -2322.2626     -12281.736    
     23850   177.60001      354.14913     -2330.0607      7.7363752     -2322.3243     -17056.819    
     23900   152.44653      303.991       -2329.0158      6.6406727     -2322.3751     -16572.876    
     23950   182.44023      363.80093     -2330.393       7.9472184     -2322.4457     -14433.028    
     24000   178.92002      356.78134     -2330.3078      7.7938758     -2322.5139     -15082.741    
     24050   182.03499      362.99285     -2330.3275      7.9295659     -2322.3979     -12306.714    
     24100   173.27493      345.52457     -2330.0033      7.5479719     -2322.4553     -14169.509    
     24150   179.41085      357.7601      -2330.34        7.8152567     -2322.5247     -14296.258    
     24200   169.91281      338.82022     -2329.9859      7.4015156     -2322.5844     -20565.161    
     24250   172.14629      343.27396     -2330.1423      7.4988075     -2322.6434     -15214.981    
     24300   160.15979      319.37188     -2329.6771      6.9766674     -2322.7004     -18471.266    
     24350   173.74271      346.45736     -2330.1321      7.5683488     -2322.5637     -15265.973    
     24400   180.78998      360.51019     -2330.5023      7.8753323     -2322.6269     -15779.463    
     24450   187.48283      373.8563      -2330.8772      8.1668775     -2322.7103     -14910.166    
     24500   169.29685      337.59194     -2330.1918      7.3746839     -2322.8171     -16782.523    
     24550   155.50756      310.09496     -2329.586       6.7740135     -2322.812      -16416.454    
     24600   157.22026      313.51022     -2329.7171      6.8486196     -2322.8685     -15028.44     
     24650   150.02053      299.15337     -2329.2752      6.5349948     -2322.7402     -18637.493    
     24700   149.20837      297.53384     -2329.2942      6.4996162     -2322.7946     -17546.389    
     24750   145.71335      290.56448     -2329.2136      6.3473708     -2322.8662     -15734.969    
     24800   172.46855      343.91657     -2330.4071      7.5128453     -2322.8943     -18762.291    
     24850   162.52923      324.09676     -2330.0407      7.0798821     -2322.9608     -16970.081    
     24900   161.13249      321.31154     -2330.0341      7.0190392     -2323.015      -13922.208    
     24950   164.91671      328.85759     -2330.0507      7.1838823     -2322.8668     -17497.716    
     25000   173.51488      346.00304     -2330.4819      7.5584242     -2322.9234     -16206.093    
     25050   144.97754      289.09722     -2329.2873      6.3153186     -2322.9719     -16338.856    
     25100   156.25482      311.58506     -2329.8244      6.8065646     -2323.0179     -17672.002    
     25150   166.87544      332.76345     -2330.3474      7.2692058     -2323.0782     -17809.185    
     25200   160.43831      319.92729     -2330.1123      6.9888003     -2323.1235     -16529.113    
     25250   161.73099      322.50499     -2330.0389      7.04511       -2322.9938     -16983.303    
     25300   164.17013      327.36884     -2330.1827      7.1513607     -2323.0314     -17306.158    
     25350   176.508        351.97158     -2330.7941      7.6888067     -2323.1053     -18731.29     
     25400   165.98853      330.99487     -2330.3675      7.2305712     -2323.1369     -16718.666    
     25450   159.81539      318.68512     -2330.2394      6.9616652     -2323.2777     -19442.624    
     25500   153.42182      305.93582     -2330.0539      6.6831571     -2323.3707     -16627.94     
     25550   183.37893      365.67278     -2331.1165      7.9881088     -2323.1284     -18976.628    
     25600   168.51038      336.02366     -2330.4926      7.3404248     -2323.1522     -20376.286    
     25650   167.12996      333.27098     -2330.6027      7.2802928     -2323.3224     -15146.824    
     25700   156.60991      312.29314     -2330.1925      6.8220326     -2323.3705     -18546.39     
     25750   152.7574       304.6109      -2330.0174      6.6542143     -2323.3632     -16267.394    
     25800   161.88809      322.81826     -2330.4079      7.0519535     -2323.356      -14282.69     
     25850   159.8354       318.72502     -2330.1296      6.9625367     -2323.1671     -16500.099    
     25900   154.0003       307.08936     -2329.9194      6.7083562     -2323.211      -17374.347    
     25950   158.73546      316.53166     -2330.1716      6.9146228     -2323.257      -15362.722    
     26000   158.40341      315.86952     -2330.2049      6.9001585     -2323.3047     -15258.918    
     26050   158.53658      316.13507     -2330.2495      6.9059594     -2323.3435     -18748.641    
     26100   155.00616      309.09513     -2330.1442      6.7521721     -2323.392      -14358.521    
     26150   159.74548      318.54573     -2330.2009      6.9586201     -2323.2422     -15809.871    
     26200   168.5404       336.08353     -2330.6331      7.3417327     -2323.2914     -16557.974    
     26250   162.41257      323.86411     -2330.4098      7.0748001     -2323.335      -18004.593    
     26300   170.73694      340.4636      -2330.83        7.4374153     -2323.3926     -16018.113    
     26350   149.41567      297.94723     -2329.9299      6.5086467     -2323.4213     -18865.5      
     26400   148.21878      295.56053     -2329.9271      6.4565094     -2323.4706     -16148.303    
     26450   156.24387      311.56322     -2330.137       6.8060876     -2323.3309     -18384.488    
     26500   151.98362      303.06793     -2329.9926      6.6205081     -2323.3721     -19416.444    
     26550   159.55335      318.16261     -2330.3751      6.9502509     -2323.4249     -17868.571    
     26600   148.48596      296.0933      -2329.928       6.4681477     -2323.4598     -19389.993    
     26650   148.54835      296.21772     -2329.9676      6.4708656     -2323.4968     -14000.499    
     26700   149.08484      297.28753     -2330.0303      6.4942355     -2323.536      -19515.548    
     26750   157.3262       313.72147     -2330.2375      6.8532343     -2323.3842     -16445.447    
     26800   141.7889       282.73882     -2329.5897      6.1764195     -2323.4133     -18712.539    
     26850   154.66806      308.42093     -2330.2001      6.7374442     -2323.4627     -18171.54     
     26900   155.52952      310.13875     -2330.2762      6.77497       -2323.5012     -17437.184    
     26950   151.88544      302.87214     -2330.1483      6.6162312     -2323.532      -19745.153    
     27000   152.73084      304.55794     -2330.226       6.6530575     -2323.573      -21076.704    
     27050   149.99336      299.09919     -2329.9474      6.5338112     -2323.4136     -20770.602    
     27100   167.0833       333.17794     -2330.7276      7.2782604     -2323.4494     -18588.461    
     27150   162.2623       323.56447     -2330.5534      7.0682544     -2323.4851     -18691.435    
     27200   154.05229      307.19303     -2330.2394      6.7106208     -2323.5288     -17821.965    
     27250   152.96413      305.02316     -2330.2326      6.66322       -2323.5694     -15344.499    
     27300   154.96988      309.02278     -2330.3591      6.7505918     -2323.6085     -19343.304    
     27350   163.48075      325.99416     -2330.5748      7.1213308     -2323.4535     -17028.759    
     27400   165.83268      330.6841      -2330.7187      7.2237823     -2323.495      -17039.249    
     27450   150.36114      299.83256     -2330.0777      6.5498317     -2323.5279     -17441.773    
     27500   152.34538      303.78932     -2330.195       6.6362668     -2323.5587     -19494.733    
     27550   168.46259      335.92837     -2330.9426      7.3383433     -2323.6042     -16292.032    
     27600   151.9922       303.08504     -2330.2623      6.6208819     -2323.6415     -19207.908    
     27650   167.01798      333.04768     -2330.76        7.2754148     -2323.4846     -16539.774    
     27700   168.35711      335.71802     -2330.8588      7.3337483     -2323.5251     -18699.476    
     27750   163.85024      326.73094     -2330.7278      7.1374259     -2323.5903     -15216.007    
     27800   146.12622      291.38778     -2329.959       6.3653557     -2323.5936     -14909.085    
     27850   170.66976      340.32964     -2331.0752      7.4344888     -2323.6407     -14131.705    
     27900   147.99827      295.12082     -2330.1252      6.4469037     -2323.6783     -17399.198    
     27950   149.74203      298.59802     -2330.1982      6.5228631     -2323.6754     -14781.888    
     28000   160.90149      320.85089     -2330.5727      7.0089764     -2323.5637     -16241.758    
     28050   160.19776      319.4476      -2330.6257      6.9783214     -2323.6474     -15813.514    
     28100   159.71639      318.48771     -2330.603       6.9573527     -2323.6457     -15129.858    
     28150   170.62824      340.24685     -2331.1354      7.4326803     -2323.7027     -15963.033    
     28200   157.65004      314.36725     -2330.6108      6.8673414     -2323.7434     -15840.368    
     28250   158.4113       315.88526     -2330.5451      6.9005024     -2323.6446     -14735.433    
     28300   156.49281      312.05962     -2330.6239      6.8169314     -2323.807      -15291.349    
     28350   165.73182      330.48298     -2331.0269      7.219389      -2323.8076     -15317.591    
     28400   163.92866      326.88734     -2330.8773      7.1408422     -2323.7365     -15370.381    
     28450   155.88636      310.85031     -2330.6332      6.7905141     -2323.8427     -17699.492    
     28500   160.95377      320.95514     -2330.86        7.0112537     -2323.8488     -17601.753    
     28550   156.87785      312.82743     -2330.6643      6.8337042     -2323.8306     -19432.452    
     28600   151.34073      301.78596     -2330.4634      6.5925035     -2323.8709     -15384.264    
     28650   155.53798      310.15562     -2330.5142      6.7753385     -2323.7389     -18252.412    
     28700   172.56287      344.10466     -2331.306       7.5169541     -2323.789      -16979.057    
     28750   154.30529      307.69752     -2330.5764      6.7216415     -2323.8547     -16970.559    
     28800   156.48582      312.0457      -2330.6939      6.8166271     -2323.8772     -19049.959    
     28850   163.12604      325.28684     -2330.8627      7.1058795     -2323.7569     -15285.739    
     28900   161.08923      321.22527     -2330.9546      7.0171545     -2323.9374     -13412.243    
     28950   166.19796      331.41251     -2331.129       7.2396945     -2323.8893     -17346.543    
     29000   158.24192      315.5475      -2330.8492      6.8931239     -2323.9561     -17290.122    
     29050   155.59344      310.26621     -2330.6843      6.7777543     -2323.9065     -16771.089    
     29100   157.3305       313.73006     -2330.7967      6.8534219     -2323.9433     -16015.306    
     29150   170.5863       340.16321     -2331.2692      7.4308532     -2323.8383     -20978.279    
     29200   151.91268      302.92646     -2330.5104      6.6174178     -2323.893      -15057.806    
     29250   155.30761      309.69625     -2330.628       6.7653035     -2323.8627     -15993.815    
     29300   160.09272      319.23815     -2330.8776      6.973746      -2323.9039     -17336.179    
     29350   159.92948      318.91263     -2330.9868      6.966635      -2324.0202     -16622.109    
     29400   160.32153      319.69442     -2331.1173      6.9837133     -2324.1336     -17502.605    
     29450   162.39388      323.82684     -2330.8776      7.0739859     -2323.8036     -14543.774    
     29500   160.74829      320.54541     -2330.8578      7.002303      -2323.8555     -16718.408    
     29550   158.11339      315.2912      -2330.7887      6.8875251     -2323.9012     -18342.564    
     29600   158.04483      315.15449     -2330.833       6.8845386     -2323.9485     -14269.705    
     29650   148.32658      295.77549     -2330.4649      6.461205      -2324.0037     -18976.236    
     29700   155.33376      309.74838     -2330.7955      6.7664424     -2324.029      -17444.057    
     29750   165.30868      329.63921     -2331.0803      7.2009568     -2323.8793     -17179.786    
     29800   150.56591      300.24089     -2330.4753      6.5587516     -2323.9165     -17907.809    
     29850   150.42429      299.9585      -2330.5119      6.5525828     -2323.9593     -16716.516    
     29900   158.35281      315.76863     -2330.8991      6.8979545     -2324.0012     -16628.535    
     29950   158.09976      315.26403     -2330.9296      6.8869315     -2324.0427     -15845.427    
     30000   152.02263      303.14572     -2330.7305      6.6222075     -2324.1083     -18887.695    
     30050   166.30754      331.63101     -2331.1904      7.2444677     -2323.946      -19682.277    
     30100   138.66719      276.51386     -2330.0082      6.0404355     -2323.9678     -16583.791    
     30150   141.63111      282.42417     -2330.1948      6.1695459     -2324.0253     -17849.091    
     30200   153.98762      307.06406     -2330.8071      6.7078036     -2324.0993     -16066.716    
     30250   157.41975      313.90802     -2330.9375      6.8573095     -2324.0802     -17451.408    
     30300   158.58552      316.23267     -2331.0301      6.9080914     -2324.122      -17519.343    
     30350   162.5556       324.14933     -2331.0348      7.0810307     -2323.9537     -17077.271    
     30400   153.5733       306.23789     -2330.6837      6.6897559     -2323.9939     -18613.858    
     30450   159.36312      317.78326     -2330.9754      6.9419641     -2324.0335     -18350.83     
     30500   163.04792      325.13105     -2331.186       7.1024763     -2324.0835     -14206.648    
     30550   150.49566      300.1008      -2330.6698      6.5556914     -2324.1141     -18824.742    
     30600   159.53664      318.12928     -2331.1036      6.9495228     -2324.154      -15841.069    
     30650   152.73649      304.56921     -2330.8492      6.6533037     -2324.1959     -18172.56     
     30700   150.52008      300.1495      -2330.7095      6.5567552     -2324.1528     -18803.682    
     30750   151.50585      302.11522     -2330.677       6.5996963     -2324.0773     -17874.458    
     30800   164.68311      328.39175     -2331.2952      7.1737062     -2324.1215     -18387.368    
     30850   150.73609      300.58026     -2330.7634      6.5661651     -2324.1973     -16228.532    
     30900   151.82072      302.74309     -2330.7973      6.6134121     -2324.1839     -18885.853    
     30950   154.12435      307.33672     -2330.7646      6.7137598     -2324.0509     -18809.188    
     31000   143.08962      285.33255     -2330.2941      6.2330795     -2324.061      -15111.679    
     31050   153.55982      306.211       -2330.7929      6.6891685     -2324.1037     -20913.429    
     31100   155.6315       310.34211     -2330.9173      6.7794124     -2324.1378     -18264.608    
     31150   160.2328       319.51747     -2331.144       6.9798478     -2324.1642     -17992.172    
     31200   158.13483      315.33395     -2331.1336      6.888459      -2324.2451     -18058.216    
     31250   160.22542      319.50276     -2331.0281      6.9795265     -2324.0485     -17919.738    
     31300   142.79235      284.73978     -2330.3133      6.2201303     -2324.0931     -18583.425    
     31350   152.15731      303.41428     -2330.7469      6.6280741     -2324.1189     -18354.792    
     31400   157.15195      313.37401     -2330.9998      6.845644      -2324.1542     -16757.603    
     31450   163.41544      325.86392     -2331.3677      7.1184857     -2324.2492     -17671.416    
     31500   154.88238      308.84829     -2331.0222      6.7467799     -2324.2754     -16644.006    
     31550   172.22186      343.42466     -2331.7359      7.5020995     -2324.2338     -16873.851    
     31600   162.61616      324.2701      -2331.3029      7.0836687     -2324.2193     -16961.389    
     31650   163.5381       326.10851     -2331.3         7.1238288     -2324.1761     -14439.743    
     31700   156.20079      311.47731     -2331.0059      6.8042108     -2324.2017     -17151.02     
     31750   145.06688      289.27537     -2330.5218      6.3192103     -2324.2026     -15735.243    
     31800   156.25101      311.57745     -2331.0372      6.8063983     -2324.2308     -17559.147    
     31850   156.11475      311.30575     -2330.9309      6.800463      -2324.1304     -17742.014    
     31900   150.13595      299.38353     -2330.7089      6.5400226     -2324.1689     -17494.25     
     31950   154.00925      307.10721     -2330.8668      6.7087461     -2324.158      -15157.215    
     32000   157.38842      313.84555     -2331.0651      6.8559449     -2324.2092     -18867.13     
     32050   167.15765      333.32621     -2331.5271      7.2814992     -2324.2456     -16779.8      
     32100   152.50439      304.10639     -2330.9105      6.6431932     -2324.2673     -16847.12     
     32150   155.70858      310.49582     -2330.9332      6.7827701     -2324.1504     -16251.343    
     32200   149.93479      298.98239     -2330.7018      6.5312597     -2324.1705     -15973.24     
     32250   160.02355      319.10022     -2331.2428      6.9707329     -2324.2721     -16851.933    
     32300   149.36743      297.85103     -2330.7223      6.5065452     -2324.2157     -18451.177    
     32350   150.12773      299.36714     -2330.7736      6.5396645     -2324.2339     -17600.461    
     32400   157.25951      313.58849     -2331.1218      6.8503294     -2324.2715     -18386.316    
     32450   159.07676      317.21223     -2331.2183      6.92949       -2324.2888     -19016.816    
     32500   157.60612      314.27966     -2331.1125      6.865428      -2324.247      -16248.323    
     32550   173.08772      345.15124     -2331.7792      7.5398166     -2324.2394     -19918.507    
     32600   160.82829      320.70493     -2331.3978      7.0057877     -2324.392      -16446.472    
     32650   156.32592      311.72683     -2331.2409      6.8096616     -2324.4312     -16337.618    
     32700   159.35741      317.77188     -2331.4408      6.9417154     -2324.4991     -16723.385    
     32750   155.62422      310.32759     -2331.0749      6.7790953     -2324.2958     -18235.266    
     32800   163.49117      326.01494     -2331.4563      7.1217849     -2324.3345     -17187.134    
[...]
     79150   160.07404      319.2009      -2331.4553      6.9729323     -2324.4824     -17607.546    
     79200   178.64581      356.23454     -2332.3348      7.7819308     -2324.5528     -15312.233    
     79250   180.03419      359.00308     -2332.212       7.8424095     -2324.3696     -15555.748    
     79300   165.22883      329.47998     -2331.5611      7.1974785     -2324.3636     -20785.35     
     79350   168.869        336.73877     -2331.8412      7.3560465     -2324.4851     -16636.793    
     79400   169.12111      337.2415      -2331.88        7.3670287     -2324.5129     -17322.336    
     79450   158.63156      316.32448     -2331.4481      6.910097      -2324.538      -17826.316    
     79500   172.27297      343.52657     -2332.1059      7.5043256     -2324.6016     -15500.562    
     79550   166.63678      332.28754     -2331.7839      7.2588095     -2324.5251     -17236.151    
     79600   165.12742      329.27775     -2331.7253      7.1930608     -2324.5323     -16837.699    
     79650   160.59449      320.23872     -2331.5619      6.9956034     -2324.5662     -15342.029    
     79700   160.18267      319.41751     -2331.5143      6.9776641     -2324.5366     -17206.315    
     79750   167.97699      334.96003     -2331.9025      7.3171899     -2324.5853     -15498.5      
     79800   149.33852      297.79339     -2331.2064      6.505286      -2324.7011     -19819.483    
     79850   153.79178      306.67356     -2331.2517      6.699273      -2324.5525     -16624.944    
     79900   163.36717      325.76767     -2331.6293      7.1163833     -2324.5129     -16831.01     
     79950   166.5796       332.17352     -2331.8656      7.2563188     -2324.6093     -14838.525    
     80000   166.55693      332.12832     -2331.9237      7.2553314     -2324.6684     -18902.288    
     80050   168.93938      336.87912     -2332.0512      7.3591123     -2324.6921     -13154.104    
     80100   164.36029      327.74804     -2331.9292      7.1596443     -2324.7695     -12891.217    
     80150   171.23482      341.45641     -2331.8737      7.4591031     -2324.4146     -15311.615    
     80200   168.27078      335.54588     -2331.8877      7.3299878     -2324.5577     -16770.299    
     80250   156.31409      311.70324     -2331.3771      6.8091463     -2324.568      -18532.178    
     80300   151.13709      301.37989     -2331.1536      6.5836329     -2324.5699     -17638.742    
     80350   152.68205      304.46065     -2331.2481      6.650932      -2324.5972     -16500.667    
     80400   165.62734      330.27464     -2331.8434      7.2148377     -2324.6285     -15485.476    
     80450   168.11656      335.23834     -2331.6543      7.3232697     -2324.331      -16302.75     
     80500   164.78087      328.58671     -2331.5776      7.177965      -2324.3996     -15233.399    
     80550   169.96307      338.92045     -2331.8479      7.4037051     -2324.4442     -17321.16     
     80600   175.37114      349.70457     -2332.1503      7.639284      -2324.511      -15451.828    
     80650   161.97978      323.00109     -2331.6714      7.0559475     -2324.6154     -14067.987    
     80700   164.73394      328.49312     -2331.6648      7.1759206     -2324.4889     -13498.076    
     80750   155.70638      310.49143     -2331.1204      6.7826743     -2324.3377     -16576.931    
     80800   163.86623      326.76283     -2331.652       7.1381225     -2324.5139     -14399.215    
     80850   162.50893      324.05628     -2331.5206      7.0789978     -2324.4416     -11695.341    
     80900   174.46001      347.88772     -2332.0811      7.5995949     -2324.4816     -15398.845    
     80950   162.39977      323.83859     -2331.5503      7.0742425     -2324.4761     -18721.623    
     81000   167.69722      334.40216     -2331.8265      7.3050032     -2324.5215     -15932.837    
     81050   166.39165      331.79873     -2331.5602      7.2481315     -2324.3121     -16033.119    
     81100   166.54823      332.11096     -2331.2193      7.2549522     -2323.9643     -16720.849    
     81150   173.02196      345.02012     -2331.6932      7.5369522     -2324.1562     -12630.935    
     81200   175.22679      349.41673     -2331.409       7.632996      -2323.776      -15701.256    
     81250   168.9929       336.98584     -2331.1199      7.3614437     -2323.7584     -18303.906    
     81300   182.10715      363.13674     -2331.7383      7.9327092     -2323.8056     -16212.304    
     81350   176.01909      350.99664     -2331.3303      7.6675092     -2323.6628     -13944.419    
     81400   158.75258      316.5658      -2330.6967      6.9153687     -2323.7813     -16565.866    
     81450   174.94768      348.86018     -2331.2559      7.6208382     -2323.6351     -18405.719    
     81500   185.20433      369.31277     -2330.9791      8.0676243     -2322.9115     -18624.971    
     81550   193.78792      386.42916     -2331.0818      8.4415312     -2322.6402     -15298.674    
     81600   174.93997      348.8448      -2330.1307      7.6205023     -2322.5102     -17261.96     
     81650   187.93915      374.76624     -2330.793       8.1867552     -2322.6062     -18480.736    
     81700   186.79144      372.4776      -2330.7652      8.13676       -2322.6284     -12068.966    
     81750   181.73033      362.38534     -2330.6696      7.9162949     -2322.7533     -16461.309    
     81800   196.1407       391.1208      -2331.3072      8.54402       -2322.7631     -14909.397    
     81850   182.29997      363.52123     -2330.7012      7.9411085     -2322.7601     -15911.616    
     81900   176.47168      351.89916     -2330.4146      7.6872246     -2322.7274     -13754.464    
     81950   196.66352      392.16336     -2331.2286      8.5667947     -2322.6618     -18499.062    
     82000   192.73388      384.32731     -2330.9545      8.3956165     -2322.5589     -14909.808    
     82050   177.39336      353.73706     -2330.5129      7.7273735     -2322.7855     -16372.955    
     82100   158.49021      316.04262     -2329.9336      6.9039398     -2323.0297     -17113.648    
     82150   171.70438      342.39276     -2330.177       7.4795576     -2322.6974     -17796.166    
     82200   171.29917      341.58473     -2330.351       7.4619063     -2322.8891     -15028.718    
     82250   169.5589       338.11449     -2330.1842      7.386099      -2322.7981     -16175.104    
     82300   176.94772      352.84841     -2330.5573      7.7079609     -2322.8494     -18276.207    
     82350   168.24806      335.50057     -2330.267       7.3289981     -2322.938      -16309.465    
     82400   184.91973      368.74525     -2330.9866      8.055227      -2322.9314     -17818.35     
     82450   185.85713      370.61451     -2331.0794      8.0960609     -2322.9834     -17460.405    
     82500   183.34887      365.61284     -2331.0308      7.9867994     -2323.044      -19400.537    
     82550   187.21693      373.32606     -2331.097       8.1552946     -2322.9417     -17044.869    
     82600   172.05515      343.09222     -2330.418       7.4948373     -2322.9232     -18512.06     
     82650   178.80873      356.55943     -2330.8561      7.7890281     -2323.067      -16275.448    
     82700   177.33094      353.61258     -2330.6723      7.7246542     -2322.9477     -16251.805    
     82750   193.29753      385.45128     -2331.3768      8.4201696     -2322.9566     -19357.842    
     82800   190.50483      379.88241     -2331.406       8.2985177     -2323.1075     -14755.9      
     82850   167.98451      334.97502     -2330.4033      7.3175174     -2323.0858     -18594.97     
     82900   182.42573      363.77201     -2331.0811      7.9465866     -2323.1345     -15460.758    
     82950   174.71746      348.40108     -2330.8475      7.6108092     -2323.2367     -16410.088    
     83000   162.32877      323.69702     -2330.1085      7.0711498     -2323.0373     -16217.774    
     83050   176.7452       352.44457     -2330.9117      7.6991391     -2323.2126     -16492.184    
     83100   177.93205      354.81126     -2331.0417      7.7508393     -2323.2909     -19452.739    
     83150   182.69552      364.31        -2331.1462      7.958339      -2323.1879     -14208.581    
     83200   175.43508      349.83207     -2330.761       7.6420692     -2323.1189     -15472.153    
     83250   173.06327      345.1025      -2330.8538      7.5387519     -2323.3151     -19546.455    
     83300   183.14643      365.20915     -2331.2852      7.9779809     -2323.3072     -14940.017    
     83350   169.57653      338.14966     -2330.8127      7.3868673     -2323.4258     -15392.747    
     83400   168.70395      336.40966     -2330.8055      7.3488571     -2323.4566     -13471.113    
     83450   177.8514       354.65043     -2330.9334      7.747326      -2323.1861     -15184.321    
     83500   181.90485      362.73333     -2331.2663      7.9238967     -2323.3424     -16984.652    
     83550   171.48945      341.96417     -2331.0416      7.4701951     -2323.5714     -14708.595    
     83600   152.72454      304.54539     -2330.3138      6.6527832     -2323.661      -16113.127    
     83650   172.17589      343.33298     -2331.1822      7.5000967     -2323.6821     -18464.891    
     83700   170.74758      340.48481     -2331.209       7.4378786     -2323.7711     -15882.629    
     83750   183.9332       366.77803     -2331.4667      8.0122531     -2323.4545     -16115.863    
     83800   159.27912      317.61575     -2330.4038      6.9383048     -2323.4655     -17102.569    
     83850   156.2964       311.66797     -2330.4304      6.8083757     -2323.6221     -15402.841    
     83900   174.01313      346.9966      -2331.1377      7.5801285     -2323.5576     -15574.897    
     83950   155.44111      309.96245     -2330.2873      6.7711188     -2323.5162     -16426.714    
     84000   144.86312      288.86907     -2329.7842      6.3103345     -2323.4738     -14537.978    
     84050   160.73603      320.52096     -2330.8309      7.0017691     -2323.8292     -16062.83     
     84100   166.72907      332.47158     -2330.768       7.2628299     -2323.5051     -19391.761    
     84150   188.14653      375.17976     -2331.7327      8.1957885     -2323.5369     -15445.014    
     84200   172.50586      343.99098     -2331.1382      7.5144708     -2323.6237     -15985.874    
     84250   181.13818      361.20454     -2331.5302      7.8905004     -2323.6397     -16262.683    
     84300   162.75778      324.5525      -2330.7398      7.0898378     -2323.6499     -16693.91     
     84350   170.57877      340.1482      -2330.2312      7.4305253     -2322.8007     -17838.453    
     84400   179.45266      357.84347     -2330.7942      7.817078      -2322.9772     -16857.485    
     84450   201.10047      401.011       -2331.2316      8.760071      -2322.4715     -13615.924    
     84500   179.65236      358.24168     -2330.255       7.8257768     -2322.4292     -19419        
     84550   199.93045      398.67789     -2330.615       8.7091043     -2321.9059     -15637.801    
     84600   190.30381      379.48157     -2329.8192      8.2897614     -2321.5294     -15494.67     
     84650   189.60962      378.0973      -2329.7459      8.259522      -2321.4864     -11231.791    
     84700   179.67803      358.29288     -2329.1261      7.8268952     -2321.2992     -20073.218    
     84750   173.38399      345.74205     -2328.8214      7.5527228     -2321.2687     -17708.338    
     84800   181.56011      362.04589     -2329.2973      7.9088797     -2321.3884     -16618.297    
     84850   178.51805      355.97978     -2329.2285      7.7763658     -2321.4522     -14654.338    
     84900   191.98164      382.8273      -2329.7855      8.3628488     -2321.4226     -17698.02     
     84950   183.43713      365.78882     -2329.5023      7.9906439     -2321.5117     -19420.919    
     85000   180.66555      360.26206     -2329.5731      7.869912      -2321.7032     -16416.733    
     85050   175.76321      350.48641     -2329.1783      7.6563631     -2321.5219     -20699.42     
     85100   192.06419      382.9919      -2329.8628      8.3664445     -2321.4963     -15395.829    
     85150   192.71129      384.28227     -2329.9945      8.3946325     -2321.5999     -16343.275    
     85200   186.21881      371.33573     -2329.9188      8.1118159     -2321.807      -18297.52     
     85250   184.04505      367.00107     -2329.1864      8.0171253     -2321.1693     -17524.869    
     85300   206.21368      411.20717     -2330.2366      8.9828059     -2321.2538     -15446.211    
     85350   199.25572      397.33241     -2329.9739      8.6797124     -2321.2942     -19405.01     
     85400   187.16974      373.23197     -2329.6942      8.1532392     -2321.541      -12129.901    
     85450   194.94841      388.74329     -2329.9176      8.4920833     -2321.4255     -14808.288    
     85500   195.70878      390.25953     -2329.621       8.5252055     -2321.0958     -20171.351    
     85550   177.30175      353.55439     -2328.7327      7.723383      -2321.0093     -15735.582    
     85600   193.44222      385.7398      -2329.4824      8.4264723     -2321.056      -14060.364    
     85650   202.53898      403.87951     -2329.8831      8.8227335     -2321.0603     -14205.923    
     85700   197.45114      393.73393     -2329.7403      8.6011038     -2321.1392     -19511.827    
     85750   186.06505      371.02912     -2329.1516      8.105118      -2321.0465     -14046.381    
     85800   175.6594       350.2794      -2328.7551      7.6518411     -2321.1033     -17295.144    
     85850   188.91111      376.70441     -2328.7802      8.2290945     -2320.5511     -14555.798    
     85900   185.01137      368.92799     -2328.762       8.0592189     -2320.7028     -15555.609    
     85950   189.99715      378.87006     -2329.0794      8.276403      -2320.803      -16260.845    
     86000   185.78106      370.46283     -2328.7477      8.0927473     -2320.655      -13256.433    
     86050   185.25964      369.42307     -2328.7943      8.0700338     -2320.7243     -12004.214    
     86100   211.32465      421.39886     -2329.5316      9.2054432     -2320.3262     -16067.216    
     86150   212.49897      423.74055     -2329.5436      9.2565972     -2320.287      -16761.507    
     86200   195.12712      389.09964     -2328.858       8.4998679     -2320.3582     -14785.07     
     86250   203.966        406.72509     -2329.0903      8.8848952     -2320.2054     -16864.929    
     86300   205.44353      409.67142     -2329.2315      8.9492576     -2320.2823     -13386.174    
     86350   206.91298      412.60163     -2329.2951      9.0132679     -2320.2819     -14612.286    
     86400   187.58975      374.0695      -2328.4257      8.1715349     -2320.2542     -17573.056    
     86450   216.56085      431.84027     -2329.0686      9.4335353     -2319.635      -17006.599    
     86500   208.61464      415.99487     -2328.6954      9.0873932     -2319.608      -12153.985    
     86550   197.93649      394.70175     -2328.2446      8.6222458     -2319.6223     -15721.887    
     86600   191.44169      381.75058     -2328.0386      8.3393279     -2319.6992     -11938.643    
     86650   220.11703      438.9316      -2329.0596      9.5884451     -2319.4712     -16930.969    
     86700   208.49401      415.75432     -2328.6823      9.0821384     -2319.6002     -16317.535    
     86750   201.69825      402.20301     -2328.2648      8.7861106     -2319.4787     -17904.622    
     86800   222.51383      443.71101     -2329.1921      9.6928513     -2319.4993     -15091.532    
     86850   197.49216      393.81573     -2328.1404      8.6028906     -2319.5375     -16181.998    
     86900   197.1329       393.09933     -2328.0851      8.5872408     -2319.4979     -16296.318    
     86950   175.31474      349.59212     -2327.2434      7.6368275     -2319.6066     -15539.297    
     87000   197.2311       393.29515     -2328.1787      8.5915185     -2319.5871     -17250.108    
     87050   204.06292      406.91838     -2328.0358      8.8891175     -2319.1467     -14161.211    
     87100   199.09934      397.02058     -2328.0784      8.6729005     -2319.4055     -19172.111    
     87150   185.35339      369.61002     -2327.3322      8.0741177     -2319.258      -17409.863    
     87200   208.51086      415.78793     -2328.3987      9.0828726     -2319.3159     -14259.622    
     87250   221.42728      441.54433     -2328.9712      9.6455202     -2319.3257     -17339.051    
     87300   194.57349      387.99567     -2327.8119      8.4757516     -2319.3361     -17469.19     
     87350   203.90291      406.5993      -2328.1539      8.8821472     -2319.2717     -17464.455    
     87400   221.42308      441.53596     -2329.1586      9.6453375     -2319.5132     -14882.779    
     87450   195.32327      389.49077     -2328.0707      8.5084121     -2319.5623     -14139.725    
     87500   208.97251      416.7085      -2328.6634      9.1029823     -2319.5604     -21784.846    
     87550   188.05723      375.0017      -2327.8317      8.1918989     -2319.6398     -14802.665    
     87600   209.91846      418.59481     -2328.8713      9.1441887     -2319.7271     -14334.337    
     87650   205.59539      409.97423     -2328.3904      8.9558726     -2319.4345     -17028.306    
     87700   181.57491      362.07541     -2327.5212      7.9095244     -2319.6117     -19471.568    
     87750   211.37068      421.49065     -2328.9204      9.2074483     -2319.7129     -14176.256    
     87800   199.33565      397.4918      -2328.3833      8.6831943     -2319.7001     -15346.266    
     87850   195.7581       390.35787     -2328.3178      8.5273538     -2319.7904     -17486.933    
     87900   198.77155      396.36693     -2328.452       8.6586215     -2319.7934     -17268.575    
     87950   179.42216      357.78264     -2327.4512      7.8157491     -2319.6355     -18517.162    
     88000   187.8754       374.63911     -2327.4811      8.1839781     -2319.2971     -16851.173    
     88050   200.27785      399.37063     -2327.9548      8.7242373     -2319.2306     -17966.706    
     88100   189.36177      377.60305     -2327.6035      8.2487253     -2319.3548     -18011.388    
     88150   207.89026      414.55041     -2328.631       9.0558389     -2319.5751     -12712.922    
     88200   201.95013      402.70529     -2328.2238      8.7970828     -2319.4267     -14073.311    
     88250   218.69203      436.09002     -2328.7767      9.5263711     -2319.2504     -12997.78     
     88300   190.76159      380.39441     -2327.7068      8.3097023     -2319.3971     -16402.115    
     88350   208.70901      416.18305     -2327.7374      9.091504      -2318.6459     -14968.958    
     88400   212.27262      423.28919     -2327.885       9.2467373     -2318.6383     -15149.518    
     88450   218.54071      435.78828     -2327.7182      9.5197794     -2318.1984     -15161.983    
     88500   232.19633      463.01871     -2327.9618      10.114627     -2317.8472     -14931.257    
     88550   222.42891      443.54166     -2326.1184      9.6891519     -2316.4293     -19821.561    
     88600   204.83368      408.45533     -2325.676       8.9226923     -2316.7533     -18712.389    
     88650   465.82899      928.90159     -2320.2038      20.291822     -2299.912      -11567.856    
     88700   434.00421      865.44036     -2318.6431      18.905514     -2299.7376     -13302.864    
     88750   463.98645      925.22742     -2320.1744      20.21156      -2299.9629     -15094.847    
     88800   462.74636      922.75459     -2319.9478      20.157541     -2299.7902     -21531.37     
     88850   461.42867      920.12699     -2320.1587      20.100141     -2300.0586     -12047.46     
ERROR: Lost atoms: original 338 current 337 (src/thermo.cpp:488)
Last command: run 200000
