 # Fe168 O56 H113 Cl
  
         338  atoms
           4  atom types
 
      0.000000000000      11.328000000000  xlo xhi
      0.000000000000      12.015000000000  ylo yhi
      0.000000000000      32.000000000000  zlo zhi
 
Masses
 
            1   55.84500000             # Fe
            2   15.99900000             # O
            3   1.00800000              # H
            4   35.45000000             # Cl
 
Atoms # atomic
 
         1    1        0.000000000000       0.000000000000       0.000000000000
         2    1        0.000000000000       2.002540050000       2.002880000000
         3    1       11.328000000000       0.000000000000       4.005120000000
         4    1        0.000000000000       2.002540050000       6.008000000000
         5    1        0.000000000000       0.000000000000       8.009920000000
         6    1        0.000000000000       2.002540050000      10.011808000000
         7    1        0.000000000000       0.000000000000      12.015008000000
         8    1        1.416000000000       2.002540050000       0.000000000000
         9    1        1.416000000000       0.000000000000       2.002880000000
        10    1        1.416000000000       2.002540050000       4.005120000000
        11    1        1.416000000000       0.000000000000       6.008000000000
        12    1        1.416000000000       2.002540050000       8.009920000000
        13    1        1.416000000000       0.000000000000      10.011808000000
        14    1        1.416000000000       2.002540050000      12.015008000000
        15    1        2.832000000000       0.000000000000       0.000000000000
        16    1        2.832000000000       2.002540050000       2.002880000000
        17    1        2.832000000000       0.000000000000       4.005120000000
        18    1        2.832000000000       2.002540050000       6.008000000000
        19    1        2.832000000000       0.000000000000       8.009920000000
        20    1        2.832000000000       2.002540050000      10.011808000000
        21    1        2.832000000000       0.000000000000      12.015008000000
        22    1        4.248000000000       2.002540050000       0.000000000000
        23    1        4.248000000000       0.000000000000       2.002880000000
        24    1        4.248000000000       2.002540050000       4.005120000000
        25    1        4.248000000000       0.000000000000       6.008000000000
        26    1        4.248000000000       2.002540050000       8.009920000000
        27    1        4.248000000000       0.000000000000      10.011808000000
        28    1        4.248000000000       2.002540050000      12.015008000000
        29    1        5.664000000000       0.000000000000       0.000000000000
        30    1        5.664000000000       2.002540050000       2.002880000000
        31    1        5.664000000000       0.000000000000       4.005120000000
        32    1        5.664000000000       2.002540050000       6.008000000000
        33    1        5.664000000000       0.000000000000       8.009920000000
        34    1        5.664000000000       2.002540050000      10.011808000000
        35    1        5.664000000000       0.000000000000      12.015008000000
        36    1        7.080000000000       2.002540050000       0.000000000000
        37    1        7.080000000000       0.000000000000       2.002880000000
        38    1        7.080000000000       2.002540050000       4.005120000000
        39    1        7.080000000000       0.000000000000       6.008000000000
        40    1        7.080000000000       2.002540050000       8.009920000000
        41    1        7.080000000000       0.000000000000      10.011808000000
        42    1        7.080000000000       2.002540050000      12.015008000000
        43    1        8.496000000000       0.000000000000       0.000000000000
        44    1        8.496000000000       2.002540050000       2.002880000000
        45    1        8.496000000000       0.000000000000       4.005120000000
        46    1        8.496000000000       2.002540050000       6.008000000000
        47    1        8.496000000000       0.000000000000       8.009920000000
        48    1        8.496000000000       2.002540050000      10.011808000000
        49    1        8.496000000000       0.000000000000      12.015008000000
        50    1        9.912000000000       2.002540050000       0.000000000000
        51    1        9.912000000000       0.000000000000       2.002880000000
        52    1        9.912000000000       2.002540050000       4.005120000000
        53    1        9.912000000000       0.000000000000       6.008000000000
        54    1        9.912000000000       2.002540050000       8.009920000000
        55    1        9.912000000000       0.000000000000      10.011808000000
        56    1        9.912000000000       2.002540050000      12.015008000000
        57    1        0.000000000000       4.004959950000       0.000000000000
        58    1        0.000000000000       6.007500000000       2.002880000000
        59    1        0.000000000000       4.004959950000       4.005120000000
        60    1        0.000000000000       6.007500000000       6.008000000000
        61    1        0.000000000000       4.004959950000       8.009920000000
        62    1       11.328000000000       6.007500000000      10.011808000000
        63    1        0.000000000000       4.004959950000      12.015008000000
        64    1        1.416000000000       6.007500000000       0.000000000000
        65    1        1.416000000000       4.004959950000       2.002880000000
        66    1        1.416000000000       6.007500000000       4.005120000000
        67    1        1.416000000000       4.004959950000       6.008000000000
        68    1        1.416000000000       6.007500000000       8.009920000000
        69    1        1.416000000000       4.004959950000      10.011808000000
        70    1        1.416000000000       6.007500000000      12.015008000000
        71    1        2.832000000000       4.004959950000       0.000000000000
        72    1        2.832000000000       6.007500000000       2.002880000000
        73    1        2.832000000000       4.004959950000       4.005120000000
        74    1        2.832000000000       6.007500000000       6.008000000000
        75    1        2.832000000000       4.004959950000       8.009920000000
        76    1        2.832000000000       6.007500000000      10.011808000000
        77    1        2.832000000000       4.004959950000      12.015008000000
        78    1        4.248000000000       6.007500000000       0.000000000000
        79    1        4.248000000000       4.004959950000       2.002880000000
        80    1        4.248000000000       6.007500000000       4.005120000000
        81    1        4.248000000000       4.004959950000       6.008000000000
        82    1        4.248000000000       6.007500000000       8.009920000000
        83    1        4.248000000000       4.004959950000      10.011808000000
        84    1        4.248000000000       6.007500000000      12.015008000000
        85    1        5.664000000000       4.004959950000       0.000000000000
        86    1        5.664000000000       6.007500000000       2.002880000000
        87    1        5.664000000000       4.004959950000       4.005120000000
        88    1        5.664000000000       6.007500000000       6.008000000000
        89    1        5.664000000000       4.004959950000       8.009920000000
        90    1        5.664000000000       6.007500000000      10.011808000000
        91    1        5.664000000000       4.004959950000      12.015008000000
        92    1        7.080000000000       6.007500000000       0.000000000000
        93    1        7.080000000000       4.004959950000       2.002880000000
        94    1        7.080000000000       6.007500000000       4.005120000000
        95    1        7.080000000000       4.004959950000       6.008000000000
        96    1        7.080000000000       6.007500000000       8.009920000000
        97    1        7.080000000000       4.004959950000      10.011808000000
        98    1        7.080000000000       6.007500000000      12.015008000000
        99    1        8.496000000000       4.004959950000       0.000000000000
       100    1        8.496000000000       6.007500000000       2.002880000000
       101    1        8.496000000000       4.004959950000       4.005120000000
       102    1        8.496000000000       6.007500000000       6.008000000000
       103    1        8.496000000000       4.004959950000       8.009920000000
       104    1        8.496000000000       6.007500000000      10.011808000000
       105    1        8.496000000000       4.004959950000      12.015008000000
       106    1        9.912000000000       6.007500000000       0.000000000000
       107    1        9.912000000000       4.004959950000       2.002880000000
       108    1        9.912000000000       6.007500000000       4.005120000000
       109    1        9.912000000000       4.004959950000       6.008000000000
       110    1        9.912000000000       6.007500000000       8.009920000000
       111    1        9.912000000000       4.004959950000      10.011808000000
       112    1        9.912000000000       6.007500000000      12.015008000000
       113    1       11.328000000000       8.010040050000       0.000000000000
       114    1        0.000000000000      10.012495995000       2.002880000000
       115    1       11.328000000000       8.010040050000       4.005120000000
       116    1        0.000000000000      10.012495995000       6.008000000000
       117    1       11.328000000000       8.010040050000       8.009920000000
       118    1        0.000000000000      10.012495995000      10.011808000000
       119    1        0.000000000000       8.010040050000      12.015008000000
       120    1        1.416000000000      10.012495995000       0.000000000000
       121    1        1.416000000000       8.010040050000       2.002880000000
       122    1        1.416000000000      10.012495995000       4.005120000000
       123    1        1.416000000000       8.010040050000       6.008000000000
       124    1        1.416000000000      10.012495995000       8.009920000000
       125    1        1.416000000000       8.010040050000      10.011808000000
       126    1        1.416000000000      10.012495995000      12.015008000000
       127    1        2.832000000000       8.010040050000       0.000000000000
       128    1        2.832000000000      10.012495995000       2.002880000000
       129    1        2.832000000000       8.010040050000       4.005120000000
       130    1        2.832000000000      10.012495995000       6.008000000000
       131    1        2.832000000000       8.010040050000       8.009920000000
       132    1        2.832000000000      10.012495995000      10.011808000000
       133    1        2.832000000000       8.010040050000      12.015008000000
       134    1        4.248000000000      10.012495995000       0.000000000000
       135    1        4.248000000000       8.010040050000       2.002880000000
       136    1        4.248000000000      10.012495995000       4.005120000000
       137    1        4.248000000000       8.010040050000       6.008000000000
       138    1        4.248000000000      10.012495995000       8.009920000000
       139    1        4.248000000000       8.010040050000      10.011808000000
       140    1        4.248000000000      10.012495995000      12.015008000000
       141    1        5.664000000000       8.010040050000       0.000000000000
       142    1        5.664000000000      10.012495995000       2.002880000000
       143    1        5.664000000000       8.010040050000       4.005120000000
       144    1        5.664000000000      10.012495995000       6.008000000000
       145    1        5.664000000000       8.010040050000       8.009920000000
       146    1        5.664000000000      10.012495995000      10.011808000000
       147    1        5.664000000000       8.010040050000      12.015008000000
       148    1        7.080000000000      10.012495995000       0.000000000000
       149    1        7.080000000000       8.010040050000       2.002880000000
       150    1        7.080000000000      10.012495995000       4.005120000000
       151    1        7.080000000000       8.010040050000       6.008000000000
       152    1        7.080000000000      10.012495995000       8.009920000000
       153    1        7.080000000000       8.010040050000      10.011808000000
       154    1        7.080000000000      10.012495995000      12.015008000000
       155    1        8.496000000000       8.010040050000       0.000000000000
       156    1        8.496000000000      10.012495995000       2.002880000000
       157    1        8.496000000000       8.010040050000       4.005120000000
       158    1        8.496000000000      10.012495995000       6.008000000000
       159    1        8.496000000000       8.010040050000       8.009920000000
       160    1        8.496000000000      10.012495995000      10.011808000000
       161    1        8.496000000000       8.010040050000      12.015008000000
       162    1        9.912000000000      10.012495995000       0.000000000000
       163    1        9.912000000000       8.010040050000       2.002880000000
       164    1        9.912000000000      10.012495995000       4.005120000000
       165    1        9.912000000000       8.010040050000       6.008000000000
       166    1        9.912000000000      10.012495995000       8.009920000000
       167    1        9.912000000000       8.010040050000      10.011808000000
       168    1        9.912000000000      10.012495995000      12.015008000000
       169    2        0.653784192000       7.765414650000      20.377184000000
       170    2        2.770726848000       0.750276675000      17.762912000000
       171    2        0.635557440000       4.121000820000      17.192288000000
       172    2        9.507613056000      11.480596830000      23.511392000000
       173    2        0.543086976000       3.553195950000      21.390912000000
       174    2        4.369787328000       6.265642275000      20.734016000000
       175    2       10.141097472000       7.008577785000      22.154208000000
       176    2        4.171105536000       3.168391545000      17.501088000000
       177    2        6.151375872000       3.487257630000      23.137088000000
       178    2        2.944079232000       4.083201630000      14.943584000000
       179    2       10.720298112000       2.590349895000      19.075616000000
       180    2        8.149306560000       6.244880355000      20.008096000000
       181    2        7.428528576000       4.250282220000      17.086816000000
       182    2        2.516152704000      11.872297845000      15.395584000000
       183    2        1.402395072000       6.143846220000      14.280992000000
       184    2        1.666869888000      10.186497225000      21.087200000000
       185    2        8.499126528000       2.609886285000      15.069600000000
       186    2        4.190363136000       8.114606595000      16.859808000000
       187    2        2.106554880000       5.547241395000      21.162304000000
       188    2        7.935558528000       7.232080815000      13.879904000000
       189    2        2.182259904000       0.727760565000      24.138784000000
       190    2        0.593825088000      10.341094230000      23.619296000000
       191    2        9.975006336000       5.768725905000      14.627392000000
       192    2        0.360151104000       6.780364875000      17.762496000000
       193    2        3.805381056000       2.428676055000      22.287488000000
       194    2        7.021320960000      10.918499085000      17.966304000000
       195    2        9.009407616000       6.708190770000      24.858304000000
       196    2        2.395045056000       8.442844380000      15.090784000000
       197    2        5.098098432000       6.263635770000      23.428000000000
       198    2        2.830482048000       1.845455940000      13.805312000000
       199    2        7.205253696000       0.226062225000      20.180384000000
       200    2        4.851295296000       1.764270585000      19.893600000000
       201    2        2.314219776000       6.194633625000      23.772608000000
       202    2        6.818900928000       9.013809195000      20.851616000000
       203    2        7.865970624000       3.965875155000      21.295904000000
       204    2        5.307213312000       5.289507630000      15.166304000000
       205    2        5.494487808000       2.516145255000      15.165792000000
       206    2        7.893950784000       2.537904420000      19.003392000000
       207    2        6.436841472000       8.448767775000      15.458592000000
       208    2        4.084004544000       8.896903245000      20.544704000000
       209    2        9.082507200000       6.294249990000      17.525504000000
       210    2        0.251764800000       7.877971170000      24.539616000000
       211    2        0.209148864000       8.747484705000      15.994304000000
       212    2        8.501913216000       8.738821890000      17.117088000000
       213    2        0.012596736000      11.927434680000      14.261088000000
       214    2        8.491672704000       9.132793740000      23.146400000000
       215    2        4.727933376000      10.573800750000      14.860512000000
       216    2        7.681766016000      11.992195530000      15.486816000000
       217    2        0.366732672000       0.156687615000      19.234784000000
       218    2       11.144996160000       2.511964035000      14.974816000000
       219    2       10.493398272000      11.083404960000      17.213088000000
       220    2        5.068067904000       5.786544150000      18.162400000000
       221    2        9.840735552000       9.549714240000      14.165792000000
       222    2        9.889513920000       4.014812250000      23.184512000000
       223    2        9.656825472000      11.210703885000      20.695104000000
       224    2        4.463571840000      10.204399575000      18.231808000000
       225    3        7.228963200000       4.603835610000      12.992608000000
       226    3        1.100401920000       8.670816990000      20.518304000000
       227    3        6.033236160000       5.666814675000      18.055008000000
       228    3       11.156607360000      11.782894230000      18.444000000000
       229    3        8.819323776000      10.066503420000      23.377184000000
       230    3        0.226695936000       2.583116865000      14.106592000000
       231    3        9.878865600000       4.799571975000      23.778816000000
       232    3        5.376971136000       9.906836085000      15.208192000000
       233    3        9.504599808000      10.973695995000      17.103808000000
       234    3        1.881977280000       0.618676380000      18.152000000000
       235    3        3.080751552000       1.727528715000      17.883392000000
       236    3        0.191409216000       3.737494035000      16.372992000000
       237    3        0.663582912000       5.132579715000      17.094400000000
       238    3       10.463401728000      11.472498720000      23.669696000000
       239    3        9.011084160000       0.170000235000      24.067712000000
       240    3        0.079296000000       3.286042425000      20.519488000000
       241    3       11.161297152000       3.710232000000      22.022208000000
       242    3        4.738207872000       6.180996600000      21.664000000000
       243    3        3.501564096000       5.837163345000      20.782400000000
       244    3        9.647819712000       6.541362495000      21.412288000000
       245    3        9.572851008000       7.735052745000      22.383616000000
       246    3        4.495664064000       4.143865365000      17.701888000000
       247    3        4.731501696000       2.914046010000      16.701504000000
       248    3        6.611258688000       3.067705845000      23.966784000000
       249    3        5.241363648000       3.085295805000      22.929696000000
       250    3        3.859132416000       4.470324930000      15.056992000000
       251    3        2.484785472000       4.045138110000      15.813792000000
       252    3        9.677170560000       2.538901665000      19.171392000000
       253    3       10.928597376000       3.173017320000      18.293312000000
       254    3        7.308870912000       6.748921620000      20.082688000000
       255    3        7.848423552000       5.360432175000      20.492608000000
       256    3        7.694577984000       3.772481715000      16.260800000000
       257    3        7.529211840000       3.519818280000      17.831808000000
       258    3        2.519755008000       0.278760015000      16.373888000000
       259    3        3.391444608000      11.352300660000      15.276608000000
       260    3        1.731960576000       7.013684160000      14.574784000000
       261    3        2.162028096000       5.566549500000      14.572192000000
       262    3        1.289624832000      10.853702190000      20.442304000000
       263    3        1.200473472000      10.363598325000      21.943104000000
       264    3        8.378313408000       2.514775545000      14.099008000000
       265    3        9.472382976000       2.652491475000      15.107808000000
       266    3        4.509993984000       7.286244435000      17.291200000000
       267    3        4.293028800000       8.943461370000      17.391200000000
       268    3        1.448851200000       4.749565545000      21.231392000000
       269    3        1.740785088000       6.273632250000      20.569696000000
       270    3        8.678471424000       6.718487625000      14.348992000000
       271    3        7.298505792000       7.499811060000      14.606304000000
       272    3        2.835908160000       1.104647085000      23.466688000000
       273    3        2.618954304000       1.033734555000      24.938496000000
       274    3        0.505953792000       9.464996475000      24.112096000000
       275    3        1.233993024000      10.905102360000      24.107616000000
       276    3        9.824525184000       4.821475320000      14.297408000000
       277    3       10.975302720000       5.871994830000      14.728096000000
       278    3        0.595252416000       6.991420365000      18.744512000000
       279    3       10.705900224000       6.508633635000      17.769408000000
       280    3        4.137359424000       2.349977805000      21.316416000000
       281    3        3.045555456000       3.038665590000      22.150688000000
       282    3        7.210589184000      11.501995545000      17.218912000000
       283    3        6.052176576000      10.657004625000      18.024192000000
       284    3        9.556674624000       7.034205780000      25.615104000000
       285    3        8.865825216000       7.543617750000      24.313888000000
       286    3        3.142851648000       8.312914170000      15.769696000000
       287    3        2.543203968000       9.129441555000      14.380192000000
       288    3        5.824211904000       6.925073535000      23.458816000000
       289    3        5.471729856000       5.408564265000      23.660512000000
       290    3        2.574197376000       1.076760270000      14.428704000000
       291    3        3.048432768000       2.645534790000      14.417792000000
       292    3        7.129786560000      11.779602120000      19.298400000000
       293    3        8.127284928000      11.962698705000      20.446688000000
       294    3        5.653736832000       1.254029580000      20.167200000000
       295    3        5.048651712000       2.320048440000      19.064992000000
       296    3        3.299959680000       6.293324835000      23.869696000000
       297    3        2.023917120000       6.134354370000      22.813408000000
       298    3        5.825016192000       8.976562695000      20.789888000000
       299    3        7.056766272000       9.919644075000      20.448608000000
       300    3        7.030881792000       3.666905910000      21.877088000000
       301    3        8.525554752000       3.815122950000      21.996992000000
       302    3        5.672563968000       5.359783365000      14.256192000000
       303    3        5.747385408000       4.489681095000      15.413408000000
       304    3        5.434540032000       2.615196915000      14.195104000000
       305    3        6.112894656000       1.768571955000      15.282912000000
       306    3        7.825620288000       3.101828445000      19.851488000000
       307    3        7.501175040000       1.638149130000      19.213600000000
       308    3        5.737065600000       8.198771670000      16.075488000000
       309    3        7.285331328000       8.706044970000      16.084704000000
       310    3        4.010327232000       7.894792170000      20.590688000000
       311    3        3.435703104000       9.326487555000      21.111904000000
       312    3        8.636591808000       6.275302335000      18.414304000000
       313    3        8.688881856000       5.522069970000      16.999200000000
       314    3       10.732498368000       7.454971080000      24.208608000000
       315    3        0.927083520000       7.218359685000      24.205088000000
       316    3        1.181567040000       8.875985130000      15.734592000000
       317    3        0.317965632000       8.001761715000      16.707296000000
       318    3        7.880787648000       9.173873025000      17.734400000000
       319    3        8.781386304000       7.819157745000      17.379392000000
       320    3       10.736995584000      11.249704575000      14.672800000000
       321    3        7.862379648000       9.179748360000      22.388992000000
       322    3        5.304630528000      11.167702200000      14.319296000000
       323    3        7.386218496000      11.715802470000      14.622592000000
       324    3        8.265724416000       0.747801585000      15.389600000000
       325    3       10.517696832000       9.128780730000      14.817600000000
       326    3        0.082297920000       1.178202915000      19.270208000000
       327    3       11.255330880000       1.523802375000      15.074912000000
       328    3        0.863125632000      11.680394265000      14.791808000000
       329    3       10.817095872000      10.202405085000      17.008992000000
       330    3        4.881450432000       5.903774505000      19.148000000000
       331    3        8.969850240000       9.211504005000      14.537504000000
       332    3        9.591111744000       3.233428740000      23.757696000000
       333    3        9.633988224000      11.330505450000      21.695904000000
       334    3       10.509302784000      11.502199800000      20.292704000000
       335    3        0.091700160000       7.635436380000      21.178016000000
       336    3        4.327103424000       9.657176400000      19.163008000000
       337    3        3.863640960000      10.930201695000      18.212800000000
       338    4        8.369103744000       1.833140565000      24.986496000000
